# Probe 0 (1 0 0)
# Probe 1 (10 0 0)
# Probe 2 (20 0 0)
# Probe 3 (30 0 0)
# Probe 4 (40 0 0)
#       Probe             0             1             2             3             4
#        Time
            0         0.153         0.153         0.153         0.153         0.153
          0.1      0.153013      0.153013      0.153015      0.153019       0.16786
          0.2      0.153018      0.153018      0.153018      0.164511      0.167327
          0.3      0.153078      0.153018      0.153021      0.164406      0.166962
          0.4      0.153078      0.153089       0.16539      0.164437      0.166666
          0.5      0.153081      0.153096      0.165311      0.164504      0.166364
          0.6      0.153093      0.164829      0.165206      0.164563      0.166165
          0.7      0.153565      0.164726      0.165118      0.164594      0.165969
          0.8      0.175586      0.164732      0.165051      0.164645      0.165803
          0.9      0.175601      0.166246      0.165041      0.164733      0.165697
            1      0.175671      0.176206      0.165144      0.165174      0.167017
          1.1      0.175702      0.176247      0.175798      0.165628      0.167267
          1.2      0.175715      0.176253      0.175916      0.166374      0.167721
          1.3      0.175731      0.176264      0.175939      0.176267       0.16842
          1.4      0.175739      0.176268      0.175972      0.176374      0.169628
          1.5      0.175744      0.176274      0.175989      0.176713      0.188882
          1.6      0.175797       0.17628      0.176436      0.177827      0.188485
          1.7      0.176139      0.176401      0.177043      0.186164       0.18813
          1.8      0.176637      0.176928      0.186265      0.186094      0.187893
          1.9      0.177278      0.177685      0.186336      0.186149      0.187717
            2      0.178427       0.18651      0.186417      0.186222      0.187603
          2.1       0.18045      0.186677      0.186503      0.186287      0.187647
          2.2      0.197054      0.187374      0.186649      0.186413      0.188229
          2.3      0.197091      0.190213      0.187123      0.186749      0.188407
          2.4       0.19713      0.196079      0.187964      0.187032      0.188586
          2.5      0.197178      0.196104      0.196273      0.187547        0.1889
          2.6      0.197187      0.196149      0.196317      0.189483      0.189478
          2.7      0.197195      0.196435      0.196455      0.197331      0.190652
          2.8      0.197208      0.196558      0.196687      0.197347      0.194256
          2.9       0.19722      0.196746      0.197086      0.198124      0.209608
            3      0.197233      0.197134       0.19767        0.2059      0.209345
          3.1      0.197253      0.197607      0.199185      0.206023      0.209161
          3.2      0.197907      0.198297      0.206629      0.206097      0.208994
          3.3      0.198806      0.201514      0.206681      0.206208      0.208879
          3.4       0.20059      0.206895      0.206762      0.206308      0.208766
          3.5      0.213074      0.207372      0.206835      0.206563      0.208684
          3.6      0.215946      0.209156      0.207232      0.206878       0.20862
          3.7       0.21603      0.215392       0.20797      0.207278       0.20861
          3.8      0.216103      0.215496      0.211095      0.207862      0.209037
          3.9      0.216125       0.21565      0.216085      0.209164      0.209576
            4      0.216138      0.215955        0.2161      0.216953      0.210555
          4.1      0.216236      0.216203      0.216296       0.21698      0.214193
          4.2       0.21659      0.216387      0.216751      0.217636       0.22684
          4.3      0.216923      0.216782      0.217246      0.222212      0.226727
          4.4      0.217176       0.21745      0.218543      0.225261      0.226659
          4.5       0.21786      0.218299       0.22477      0.225283      0.226626
          4.6      0.218692      0.221356      0.225512      0.225393      0.226661
          4.7      0.220437      0.226146      0.225629      0.225544      0.226873
          4.8      0.231229      0.226563      0.225837      0.225835      0.227081
          4.9      0.234229      0.228303       0.22643      0.226099      0.227397
            5      0.234347      0.233984      0.227221       0.22663      0.227625
          5.1       0.23446      0.234118      0.231427      0.227211      0.228005
          5.2      0.234498      0.234364      0.234554      0.228397      0.228815
          5.3      0.234693      0.234663      0.234669      0.233659      0.229967
          5.4      0.234946      0.234939      0.235076      0.235631      0.234491
          5.5      0.235339      0.235217      0.235587      0.236625      0.245294
          5.6      0.235607      0.235704      0.236236      0.241441       0.24513
          5.7      0.236025      0.236278      0.237684      0.243258      0.245048
          5.8      0.236787      0.237145      0.242972       0.24343      0.245037
          5.9      0.237706      0.241037       0.24374      0.243619      0.245063
            6      0.239913      0.244366       0.24391      0.243856      0.245094
          6.1      0.249434      0.244963      0.244347      0.244084       0.24536
          6.2      0.251802      0.247341      0.244951      0.244435      0.245586
          6.3      0.251931      0.251646      0.246045      0.244956      0.245957
          6.4      0.252032       0.25186      0.251229      0.245672       0.24651
          6.5      0.252271      0.252185      0.252347      0.247477      0.247459
          6.6      0.252583      0.252482      0.252682       0.25312      0.248707
          6.7      0.252927      0.252813      0.253149      0.253566      0.257847
          6.8      0.253255      0.253206      0.253655      0.254959      0.261342
          6.9      0.253667      0.253739      0.254498       0.26026       0.26162
            7      0.254218      0.254418      0.257345      0.260625      0.261861
          7.1      0.254982      0.255641      0.260985      0.260842       0.26195
          7.2       0.25626      0.261538      0.261207      0.261065      0.262248
          7.3       0.25989      0.261884      0.261525      0.261354      0.262477
          7.4      0.268827      0.262956      0.261986      0.261687      0.262811
          7.5      0.269003      0.268509      0.262654      0.262179      0.263084
          7.6      0.269162      0.268806       0.26411      0.262753      0.263552
          7.7      0.269247      0.269087      0.269218      0.263869      0.264225
          7.8      0.269527      0.269409      0.269497      0.268338      0.265242
          7.9      0.269821      0.269698      0.269965      0.270433      0.267199
            8      0.270151      0.270135      0.270455      0.271243      0.278145
          8.1      0.270534      0.270629      0.271105      0.273905      0.278092
          8.2      0.271087      0.271145      0.272371      0.277397       0.27839
          8.3      0.271717      0.272036      0.277733      0.277568       0.27855
          8.4      0.272597      0.274072       0.27793      0.277758       0.27866
          8.5      0.274495      0.278603      0.278157      0.278016       0.27892
          8.6      0.282547      0.279157      0.278505      0.278349      0.279245
          8.7      0.285276      0.280616      0.278995      0.278696      0.279715
          8.8      0.285459      0.285115      0.279997      0.279241      0.280086
          8.9       0.28561      0.285402      0.284103      0.279954      0.280573
            9      0.285668      0.285753      0.285721      0.281485      0.281445
          9.1      0.286051      0.286162      0.286134      0.286428       0.28287
          9.2      0.286434      0.286534        0.2866       0.28709       0.28775
          9.3      0.286913      0.286991      0.287126      0.288437      0.293913
          9.4      0.287388      0.287535      0.288042      0.293097      0.294143
          9.5      0.287942      0.288264      0.290184      0.293346      0.294426
          9.6      0.288669      0.289545      0.293766       0.29358      0.294583
          9.7      0.289951      0.294495      0.294016      0.293856      0.294872
          9.8      0.293528      0.294927      0.294378      0.294186      0.295178
          9.9      0.300789      0.296067      0.294869      0.294553       0.29555
           10      0.300979      0.300414      0.295688      0.295031      0.295938
         10.1      0.301165      0.301092      0.297338      0.295652      0.296529
         10.2      0.301264       0.30145      0.301338      0.296882      0.297135
         10.3      0.301634      0.301874      0.301749      0.301417      0.298279
         10.4       0.30207      0.302276       0.30224      0.302458      0.300714
         10.5      0.302512      0.302737      0.302808      0.303631      0.309183
         10.6      0.303003      0.303279      0.303581      0.307236      0.309349
         10.7      0.303542      0.303905      0.305073      0.308734      0.309625
         10.8      0.304247      0.304958      0.309276      0.309013      0.309891
         10.9      0.305286      0.307644      0.309555       0.30932      0.310165
           11      0.307787      0.310322      0.309866       0.30969      0.310532
         11.1      0.315732      0.311208       0.31035      0.310093      0.310916
         11.2       0.31596      0.313292      0.311063      0.310566      0.311334
         11.3      0.316161      0.316165      0.312428      0.311163      0.311734
         11.4        0.3163      0.316522      0.316702      0.312221       0.31244
         11.5      0.316702       0.31694      0.316998      0.314386      0.313379
         11.6      0.317153      0.317375      0.317448       0.31773      0.315463
         11.7       0.31765      0.317838         0.318      0.318641      0.323978
         11.8      0.318159      0.318378      0.318704      0.320445      0.324142
         11.9      0.318695      0.319022      0.320043      0.323689      0.324398
           12      0.319367      0.319964      0.324203       0.32395      0.324648
         12.1      0.320336      0.321905      0.324489      0.324217      0.324934
         12.2      0.322366      0.325177      0.324795      0.324598      0.325243
         12.3      0.329116       0.32591      0.325249      0.324968      0.325713
         12.4      0.330438      0.327508      0.325868      0.325428      0.326134
         12.5       0.33065      0.330687       0.32712      0.325988      0.326612
         12.6      0.330849      0.331017      0.331104      0.326934      0.327252
         12.7      0.331267      0.331476      0.331557      0.328858      0.328208
         12.8      0.331721      0.331917       0.33205      0.332162       0.33002
         12.9      0.332239      0.332407      0.332613      0.332993      0.337501
           13      0.332759      0.332984      0.333316      0.334626      0.338273
         13.1      0.333344      0.333619       0.33456      0.337743       0.33857
         13.2      0.334027      0.334597      0.338348      0.338025      0.338915
         13.3      0.334957      0.336299      0.338806      0.338347      0.339248
         13.4      0.336945      0.339509      0.339165      0.338743      0.339595
         13.5      0.342771      0.340255      0.339607      0.339165      0.340095
         13.6      0.344364      0.341709      0.340261      0.339664      0.340482
         13.7      0.344592       0.34467      0.341422      0.340277      0.340983
         13.8      0.344933      0.345051      0.344721      0.341279      0.341667
         13.9      0.345405      0.345487      0.345596      0.343034      0.342577
           14      0.345891      0.345976       0.34608      0.346155      0.344403
         14.1      0.346437      0.346504      0.346642      0.347098      0.350597
         14.2      0.346975       0.34709      0.347363      0.348739      0.352016
         14.3      0.347589      0.347742      0.348643      0.351577      0.352318
         14.4      0.348282      0.348712      0.351705      0.351973      0.352692
         14.5      0.349258      0.350433      0.352514      0.352346      0.353036
         14.6      0.351223      0.353247      0.352901      0.352799      0.353433
         14.7      0.356629      0.354059      0.353375      0.353274      0.353887
         14.8      0.357868      0.355582       0.35405      0.353828      0.354375
         14.9      0.358168      0.358218      0.355339      0.354473      0.354973
           15      0.358558      0.358628      0.358613      0.355509      0.355633
         15.1      0.359063      0.359097      0.359127      0.357465      0.356602
         15.2      0.359601      0.359623      0.359635      0.360109      0.358704
         15.3      0.360154      0.360168      0.360223      0.361067      0.364455
         15.4      0.360732      0.360792      0.361012      0.362844      0.365273
         15.5      0.361366      0.361497      0.362306      0.365145      0.365646
         15.6       0.36208      0.362522      0.365372      0.365547       0.36606
         15.7      0.363177      0.364498      0.365802      0.365939      0.366441
         15.8       0.36536      0.366607      0.366266      0.366402      0.366915
         15.9      0.370455      0.367555       0.36681      0.366894      0.367384
           16      0.371016      0.369567      0.367629      0.367458      0.367925
         16.1      0.371372      0.371353      0.368984      0.368138      0.368558
         16.2       0.37185      0.371813       0.37183      0.369292       0.36932
         16.3      0.372393      0.372312      0.372346      0.371727      0.370508
         16.4      0.372952       0.37288      0.372911      0.373372      0.372589
         16.5      0.373536      0.373473      0.373573      0.374473      0.377656
         16.6      0.374147      0.374108      0.374487      0.376877      0.378242
         16.7      0.374821      0.374872      0.375996      0.378012      0.378638
         16.8      0.375576      0.376066      0.378484      0.378411      0.379105
         16.9      0.376868      0.378753      0.378978      0.378848      0.379621
           17       0.37952      0.379808      0.379498      0.379346      0.380057
         17.1      0.383406      0.380936      0.380133      0.379895      0.380605
         17.2      0.383837      0.383559      0.381067      0.380516      0.381209
         17.3      0.384263      0.384198      0.382751      0.381336      0.381918
         17.4       0.38481      0.384712       0.38485      0.382715       0.38277
         17.5      0.385384      0.385269      0.385438      0.385525      0.384055
         17.6      0.385971      0.385872       0.38606      0.386357      0.387073
         17.7      0.386581      0.386513      0.386806      0.387668      0.390413
         17.8      0.387231      0.387201      0.387891      0.390157      0.390934
         17.9      0.387939        0.3881      0.389933      0.390719      0.391402
           18      0.388828      0.389526      0.391393      0.391198      0.391847
         18.1       0.39044      0.391913      0.391928      0.391718      0.392367
         18.2      0.394214      0.392759       0.39251      0.392282      0.392918
         18.3       0.39591      0.394126      0.393259      0.392895      0.393486
         18.4       0.39638      0.396242      0.394426        0.3936      0.394062
         18.5      0.396883      0.396808      0.396868      0.394601       0.39478
         18.6      0.397479      0.397379      0.397753      0.396363      0.395778
         18.7      0.398082      0.397991      0.398374      0.398478       0.39754
         18.8      0.398702      0.398622      0.399047      0.399468      0.401659
         18.9       0.39934      0.399299      0.399906      0.401151      0.402727
           19      0.400031      0.400067       0.40118      0.402769      0.403259
         19.1      0.400791      0.401149      0.403392      0.403321      0.403691
         19.2      0.401928      0.403183      0.403994      0.403845      0.404212
         19.3      0.404094      0.404586      0.404575      0.404414      0.404764
         19.4      0.407553      0.405639       0.40525      0.405014      0.405348
         19.5      0.408154      0.407613      0.406164      0.405657      0.405967
         19.6      0.408658      0.408583      0.407672      0.406459      0.406676
         19.7      0.409252      0.409174      0.409514      0.407696      0.407514
         19.8      0.409872      0.409784       0.41017      0.409978      0.408752
         19.9      0.410504      0.410426       0.41082      0.410979      0.411331
           20      0.411145        0.4111      0.411578      0.412273      0.414261
         20.1      0.411824      0.411824      0.412623      0.414339      0.414841
         20.2      0.412556       0.41274      0.414465      0.414986      0.415322
         20.3      0.413475      0.414162      0.415666       0.41551       0.41588
         20.4      0.415053      0.416131      0.416259      0.416047      0.416441
         20.5      0.418247      0.417072      0.416875      0.416609       0.41704
         20.6      0.419595      0.418494      0.417651      0.417209      0.417655
         20.7      0.420151      0.420099      0.418799      0.417909      0.418346
         20.8      0.420728      0.420734      0.420749      0.418912      0.419139
         20.9      0.421366      0.421353       0.42156      0.420694       0.42018
           21      0.422009      0.422008      0.422217      0.422219       0.42202
         21.1      0.422662      0.422683      0.422935      0.423286      0.425233
         21.2      0.423337       0.42339      0.423844       0.42497      0.426144
         21.3       0.42406      0.424217      0.425274      0.426093      0.426716
         21.4      0.424888      0.425368       0.42695      0.426681      0.427296
         21.5       0.42614      0.427269      0.427596      0.427255      0.427873
         21.6      0.428563      0.428326      0.428201      0.427864      0.428447
         21.7      0.430698      0.429507       0.42891      0.428506      0.429066
         21.8      0.431354      0.431243      0.429883      0.429216      0.429712
         21.9      0.431934      0.432003      0.431522      0.430129      0.430451
           22      0.432583      0.432639      0.432684      0.431542      0.431369
         22.1      0.433239      0.433299      0.433371      0.433272       0.43287
         22.2      0.433903      0.433976      0.434072      0.434308      0.435639
         22.3      0.434584      0.434682      0.434923      0.435804      0.437069
         22.4      0.435298      0.435469      0.436116      0.437186      0.437654
         22.5      0.436088      0.436491      0.437714      0.437854      0.438227
         22.6      0.437189      0.438099      0.438467      0.438454      0.438815
         22.7      0.439129      0.439369      0.439107      0.439084      0.439409
         22.8      0.441464      0.440442      0.439825      0.439741      0.440035
         22.9      0.442281      0.442022      0.440762      0.440448      0.440699
           23      0.442886      0.442971       0.44222      0.441311      0.441513
         23.1       0.44354      0.443636      0.443549      0.442585      0.442382
         23.2      0.444207      0.444305      0.444282      0.444299      0.443723
         23.3      0.444882      0.444995      0.444987       0.44535      0.446023
         23.4       0.44557      0.445706      0.445797      0.446607      0.447773
         23.5      0.446285       0.44648      0.446851      0.448009      0.448466
         23.6      0.447061      0.447448      0.448371      0.448746      0.449067
         23.7      0.448082      0.448858      0.449309      0.449366      0.449685
         23.8      0.449774      0.450177      0.449977      0.450004      0.450312
         23.9      0.451983      0.451214      0.450685      0.450666      0.450966
           24      0.452953      0.452637      0.451577      0.451375      0.451718
         24.1      0.453594      0.453737      0.452874      0.452202      0.452417
         24.2      0.454254      0.454434      0.454192      0.453351      0.453267
         24.3      0.454934      0.455106      0.454976      0.454885      0.454526
         24.4      0.455617      0.455798      0.455685      0.456005      0.456548
         24.5      0.456312       0.45651      0.456499      0.457232      0.458293
         24.6       0.45703      0.457269      0.457555      0.458555      0.459078
         24.7      0.457807      0.458189      0.458957      0.459333      0.459742
         24.8      0.458805      0.459474      0.459925      0.459973      0.460416
         24.9      0.460376      0.460746      0.460619      0.460617      0.461029
           25      0.462355      0.461786       0.46133      0.461283      0.461668
         25.1      0.463396      0.463177      0.462195      0.461987      0.462335
         25.2      0.464071      0.464178        0.4634      0.462802      0.463056
         25.3      0.464744      0.464893       0.46465      0.463915      0.463994
         25.4      0.465432      0.465577      0.465469      0.465314       0.46524
         25.5      0.466123       0.46628      0.466206      0.466428      0.467044
         25.6      0.466827      0.466996      0.467031       0.46763      0.468623
         25.7      0.467554      0.467764      0.468084      0.468893      0.469404
         25.8      0.468338      0.468684      0.469367      0.469675      0.470068
         25.9      0.469341      0.469909       0.47032       0.47032      0.470789
           26      0.470856      0.471109      0.471033      0.470969      0.471431
         26.1      0.472604      0.472169       0.47177       0.47164      0.472061
         26.2      0.473635      0.473415      0.472625      0.472356      0.472733
         26.3      0.474335      0.474384      0.473764      0.473205      0.473463
         26.4      0.475021      0.475113      0.474921      0.474307      0.474442
         26.5      0.475716      0.475816      0.475755      0.475597      0.475636
         26.6      0.476418      0.476525      0.476513      0.476685      0.477299
         26.7      0.477129       0.47725      0.477361      0.477819      0.478674
         26.8      0.477862      0.478035      0.478414      0.478956      0.479463
         26.9      0.478668      0.478979      0.479582      0.479776      0.480142
           27      0.479704      0.480176      0.480489      0.480457      0.480799
         27.1      0.481181      0.481292      0.481221      0.481131      0.481491
         27.2      0.482693      0.482368      0.481981      0.481823      0.482204
         27.3      0.483668      0.483494       0.48293      0.482566      0.482951
         27.4       0.48439      0.484407      0.484074      0.483431      0.483682
         27.5      0.485087      0.485147        0.4851       0.48452      0.484535
         27.6      0.485789      0.485859      0.485898      0.485714      0.485792
         27.7      0.486497      0.486575      0.486656        0.4868      0.487467
         27.8      0.487215      0.487315      0.487497      0.487905      0.488571
         27.9      0.487964      0.488125      0.488533      0.488925      0.489455
           28       0.48881      0.489102      0.489587      0.489722      0.490137
         28.1      0.489907      0.490235      0.490443      0.490417       0.49081
         28.2      0.491302      0.491294      0.491196      0.491106      0.491506
         28.3      0.492583      0.492357      0.492014      0.491812      0.492206
         28.4      0.493504      0.493383      0.492983      0.492581      0.492939
         28.5      0.494248      0.494246       0.49402      0.493493      0.493715
         28.6      0.494957      0.494994      0.494941      0.494557      0.494676
         28.7      0.495665      0.495717       0.49575      0.495659       0.49595
         28.8      0.496381      0.496447      0.496546      0.496709       0.49731
         28.9      0.497114      0.497217      0.497442       0.49773      0.498446
           29      0.497901      0.498079      0.498411      0.498705      0.499312
         29.1      0.498831       0.49905      0.499332      0.499457      0.500137
         29.2      0.499971      0.500054      0.500173      0.500176      0.501085
         29.3      0.501146      0.501081      0.500993      0.500886       0.50232
         29.4       0.50211      0.502058      0.501912      0.501657      0.503675
         29.5      0.502981      0.502948      0.502817      0.502582      0.505026
         29.6      0.503818      0.503755      0.503674      0.503506      0.506419
         29.7      0.504627      0.504556       0.50456       0.50446      0.507457
         29.8      0.505421       0.50538      0.505447      0.505403      0.508304
         29.9      0.506266      0.506247      0.506337       0.50629      0.509012
           30      0.507166       0.50713      0.507188       0.50714      0.509576
         30.1      0.508078      0.508034      0.508037       0.50797      0.510208
         30.2      0.508989      0.508935      0.508902      0.508797       0.51079
         30.3      0.509884      0.509828      0.509774      0.509636       0.51139
         30.4      0.510764      0.510698      0.510627      0.510499      0.512061
         30.5      0.511622      0.511556      0.511484      0.511369      0.512927
         30.6      0.512461      0.512394      0.512379      0.512257      0.513845
         30.7      0.513296      0.513243      0.513238      0.513138      0.514635
         30.8      0.514134      0.514095      0.514091      0.514013      0.515414
         30.9      0.514989      0.514951      0.514945      0.514877      0.516177
           31      0.515853      0.515817      0.515798      0.515728      0.517033
         31.1      0.516723      0.516683      0.516655      0.516572      0.517767
         31.2      0.517594       0.51755      0.517509      0.517413      0.518538
         31.3      0.518462      0.518414      0.518362      0.518256      0.519363
         31.4      0.519322      0.519269      0.519211      0.519104      0.520114
         31.5       0.52017      0.520116      0.520068      0.519958      0.520999
         31.6      0.521011      0.520958      0.520917      0.520814      0.521757
         31.7      0.521847      0.521802      0.521765      0.521671      0.522648
         31.8      0.522683      0.522643      0.522611      0.522524      0.523407
         31.9      0.523524      0.523484      0.523455      0.523374      0.524288
           32      0.524368      0.524329      0.524298      0.524219      0.525036
         32.1      0.525218      0.525176      0.525139      0.525057      0.525896
         32.2      0.526065      0.526023      0.525979      0.525892      0.526645
         32.3      0.526912      0.526866      0.526818      0.526726      0.527498
         32.4      0.527755      0.527707      0.527656      0.527561      0.528292
         32.5      0.528593      0.528544      0.528494      0.528397      0.529108
         32.6      0.529425      0.529379       0.52933      0.529235       0.52998
         32.7      0.530254      0.530208      0.530163      0.530074       0.53074
         32.8      0.531079      0.531036      0.530996      0.530911      0.531598
         32.9      0.531907      0.531865      0.531826      0.531746      0.532454
           33      0.532735      0.532694      0.532655      0.532576      0.533208
         33.1      0.533564      0.533525      0.533484      0.533402      0.534071
         33.2      0.534397      0.534354      0.534309      0.534227       0.53484
         33.3      0.535226      0.535182      0.535134       0.53505      0.535654
         33.4      0.536052      0.536009      0.535959      0.535871      0.536517
         33.5      0.536877      0.536831      0.536781      0.536692      0.537259
         33.6      0.537696      0.537651      0.537603      0.537516      0.538097
         33.7      0.538513      0.538469      0.538422      0.538339      0.538961
         33.8      0.539328      0.539285      0.539242       0.53916      0.539701
         33.9      0.540141      0.540101      0.540058      0.539981      0.540542
           34      0.540958      0.540915      0.540873      0.540797      0.541383
         34.1      0.541771       0.54173      0.541689       0.54161      0.542218
         34.2      0.542586      0.542544        0.5425      0.542422      0.542949
         34.3      0.543399      0.543357       0.54331      0.543233      0.543776
         34.4      0.544214       0.54417      0.544122      0.544041      0.544613
         34.5      0.545021      0.544979       0.54493      0.544849      0.545345
         34.6      0.545829      0.545786      0.545737      0.545657      0.546173
         34.7      0.546633      0.546591      0.546543      0.546464      0.547002
         34.8      0.547437      0.547394      0.547347       0.54727      0.547832
         34.9      0.548238      0.548195      0.548151      0.548076       0.54856
           35      0.549038      0.548997      0.548953       0.54888      0.549378
         35.1      0.549838      0.549798      0.549753       0.54968      0.550204
         35.2      0.550638      0.550597      0.550552      0.550479      0.551023
         35.3      0.551437      0.551398       0.55135      0.551276      0.551734