# Probe 0 (1 0 0)
# Probe 1 (10 0 0)
# Probe 2 (20 0 0)
# Probe 3 (30 0 0)
# Probe 4 (40 0 0)
#       Probe             0             1             2             3             4
#        Time
            0         0.153         0.153         0.153         0.153         0.153
          0.1      0.153013      0.153013      0.153015      0.153019      0.167436
          0.2      0.153018      0.153018      0.153018      0.165635      0.166908
          0.3      0.153084      0.153018      0.153021      0.166088      0.166428
          0.4      0.153083      0.153081       0.16471       0.16618      0.166115
          0.5      0.153083       0.15309      0.165476      0.166191       0.16588
          0.6      0.153083       0.16528      0.165742      0.166196      0.165768
          0.7      0.153578      0.165103      0.165793      0.166188      0.165656
          0.8      0.175742      0.165058      0.165767      0.166183      0.165594
          0.9      0.175762      0.166114      0.165753      0.166199      0.165533
            1      0.175802      0.175217      0.165657      0.166218      0.167003
          1.1       0.17583      0.175211      0.175211      0.166234      0.167262
          1.2      0.175852      0.175215      0.175329       0.16624      0.167562
          1.3      0.175867      0.175226      0.175371      0.177079      0.168396
          1.4      0.175872      0.175233      0.175403      0.176978      0.169515
          1.5      0.175877      0.175248      0.175701      0.176966      0.190578
          1.6      0.175884      0.175504      0.176167      0.178983      0.190079
          1.7      0.176105      0.175889      0.177131      0.186127      0.189695
          1.8      0.176471      0.176712      0.184264      0.186206      0.189282
          1.9      0.177097      0.177663      0.185966      0.186357      0.189024
            2      0.178399      0.185993      0.186107      0.186532      0.188797
          2.1      0.181749      0.186497      0.186192      0.186693      0.188606
          2.2      0.195885      0.187513      0.186425        0.1868      0.188444
          2.3      0.195953      0.191325      0.187094      0.186863       0.18842
          2.4         0.196      0.196172      0.188062      0.186909      0.188572
          2.5      0.196121      0.196181      0.196141       0.18766      0.188805
          2.6       0.19635      0.196229      0.196231      0.189052      0.189198
          2.7      0.196549      0.196307      0.196435      0.196682      0.191023
          2.8      0.196596      0.196582      0.196615      0.197238      0.199852
          2.9      0.196721      0.196759      0.196895      0.198176      0.209912
            3      0.196987      0.196902      0.197678      0.205589      0.209534
          3.1      0.197251      0.197343      0.198921      0.206058      0.209235
          3.2      0.197561      0.198344      0.206101      0.206142      0.209045
          3.3      0.198885      0.204047      0.206229      0.206223      0.208927
          3.4      0.200625      0.206742       0.20639      0.206329      0.208838
          3.5      0.215357      0.207486      0.206632      0.206451      0.208744
          3.6      0.216087       0.20903      0.207036      0.206665      0.208704
          3.7      0.216138      0.215957      0.207939      0.206995       0.20863
          3.8      0.216203      0.216032      0.212466      0.207799      0.208603
          3.9      0.216214      0.216044       0.21599      0.208897      0.209127
            4      0.216225      0.216095      0.216136      0.216543      0.210445
          4.1      0.216233      0.216373      0.216425      0.216855      0.215219
          4.2      0.216401      0.216579      0.216752      0.217824      0.228668
          4.3      0.216774      0.216772      0.217366      0.222391      0.228533
          4.4      0.217162      0.217182      0.218625      0.225404      0.228425
          4.5      0.217508       0.21828      0.225424      0.225458      0.228329
          4.6      0.218507      0.220749       0.22556      0.225523      0.228269
          4.7      0.220584      0.226335      0.225699      0.225644      0.228209
          4.8      0.231188      0.226736      0.226098      0.225808      0.228068
          4.9      0.234961      0.228238      0.226479      0.226037      0.227999
            5      0.235032      0.234344      0.227352      0.226509      0.227903
          5.1      0.235096      0.234483      0.230826        0.2271      0.228123
          5.2      0.235117       0.23471      0.234784      0.228642      0.228668
          5.3      0.235131      0.234911       0.23501      0.234693      0.229832
          5.4      0.235169      0.235135      0.235315       0.23571       0.23409
          5.5      0.235402       0.23545      0.235671      0.236927      0.245161
          5.6      0.235715      0.235811      0.236354      0.242238      0.245039
          5.7      0.236152      0.236301      0.237911      0.243634      0.244952
          5.8      0.236684      0.237309      0.243593      0.243771      0.244912
          5.9      0.237637      0.240136      0.244025      0.243924      0.245067
            6      0.240075      0.244623      0.244225      0.244145      0.245319
          6.1      0.250876      0.245225      0.244546      0.244383      0.245499
          6.2      0.252302       0.24692      0.245044      0.244697      0.245764
          6.3      0.252408       0.25214      0.246299      0.245132      0.246143
          6.4      0.252488      0.252354      0.251214      0.245891      0.246614
          6.5      0.252677      0.252622      0.252751       0.24771      0.247334
          6.6      0.252956       0.25285       0.25303      0.253522      0.248715
          6.7      0.253271      0.253136      0.253379      0.253962      0.254604
          6.8      0.253556      0.253522      0.253814      0.255448      0.262035
          6.9      0.253973      0.253921      0.254705      0.261188      0.262173
            7      0.254445      0.254549      0.256608      0.261289      0.262354
          7.1      0.255089      0.255992       0.26147      0.261404      0.262422
          7.2      0.256436       0.25991       0.26166      0.261584      0.262652
          7.3      0.259651      0.262332      0.261888      0.261825      0.262903
          7.4      0.269885      0.263269      0.262271      0.262145      0.263155
          7.5      0.269998      0.265857      0.262991      0.262473      0.263459
          7.6      0.270112      0.269316       0.26475      0.263058      0.263872
          7.7      0.270186      0.269572      0.269997      0.264107      0.264505
          7.8      0.270216      0.269846      0.270024      0.266638      0.265445
          7.9      0.270418      0.270153      0.270347      0.271039       0.26763
            8      0.270676       0.27056       0.27074      0.271623      0.278311
          8.1      0.271097      0.270948      0.271428      0.273459      0.279105
          8.2      0.271564      0.271456      0.272728      0.277994      0.279041
          8.3      0.272106      0.272355      0.276299      0.278132      0.279249
          8.4      0.273019      0.274285      0.278511      0.278278       0.27934
          8.5      0.274991      0.279123      0.278689      0.278521      0.279591
          8.6      0.280037      0.279667      0.278969      0.278832      0.279886
          8.7      0.286282      0.281316      0.279467      0.279163      0.280223
          8.8      0.286417      0.285852       0.28047       0.27963      0.280605
          8.9      0.286541      0.285994      0.282565      0.280367      0.281041
            9      0.286595      0.286316      0.286526      0.282199      0.281834
          9.1      0.286785      0.286658      0.286778      0.286785      0.283209
          9.2      0.287149       0.28697       0.28721      0.287729      0.286551
          9.3      0.287591      0.287358       0.28771      0.289275      0.295095
          9.4      0.288029      0.287849      0.288588       0.29333      0.295157
          9.5      0.288545      0.288609      0.290524      0.294298      0.295377
          9.6      0.289212      0.289962      0.294624      0.294478      0.295462
          9.7      0.290547      0.293806      0.294831      0.294719      0.295658
          9.8      0.293885      0.295576      0.295129      0.295034       0.29594
          9.9      0.301719      0.296634      0.295567      0.295372      0.296331
           10      0.302009      0.298658      0.296354      0.295813      0.296705
         10.1      0.302173      0.301813      0.298359      0.296432      0.297123
         10.2      0.302299      0.302104      0.302344      0.297646      0.297709
         10.3      0.302624      0.302478      0.302641      0.299912      0.298833
         10.4      0.302988       0.30277      0.303061      0.303527      0.301743
         10.5      0.303373      0.303233      0.303504      0.304574      0.310779
         10.6      0.303842      0.303723      0.304292      0.306467      0.310719
         10.7      0.304347      0.304292      0.305848      0.309935       0.31073
         10.8       0.30497      0.305403       0.31009      0.310113      0.310873
         10.9      0.306014      0.307471      0.310499      0.310321      0.311034
           11      0.308662       0.31114      0.310798      0.310618      0.311369
         11.1      0.314801       0.31197      0.311149      0.310948      0.311758
         11.2      0.317283      0.313822      0.311805      0.311347      0.312111
         11.3      0.317458      0.317231      0.313263      0.311898      0.312529
         11.4      0.317598      0.317503      0.316632      0.312833      0.313151
         11.5      0.317815      0.317881      0.318008      0.314969      0.314023
         11.6      0.318186      0.318219      0.318412      0.318678      0.316225
         11.7      0.318636      0.318628      0.318902      0.319488      0.321104
         11.8      0.319106      0.319099      0.319497      0.321359      0.325381
         11.9      0.319596      0.319698      0.320853      0.324753      0.325643
           12      0.320222      0.320631      0.322989      0.324933      0.325821
         12.1      0.321132      0.322556      0.325585      0.325152      0.325977
         12.2      0.323435      0.326178      0.325821      0.325457      0.326283
         12.3      0.327453       0.32685      0.326183      0.325812      0.326601
         12.4       0.33191      0.328619      0.326758      0.326206      0.327073
         12.5      0.332106      0.331909       0.32808      0.326755      0.327482
         12.6      0.332268      0.332177      0.330057      0.327623      0.327979
         12.7      0.332504      0.332567       0.33268      0.329576      0.328885
         12.8      0.332914      0.332946      0.333117      0.333272      0.330755
         12.9      0.333344      0.333358      0.333612      0.334009      0.334184
           13       0.33382      0.333857      0.334205      0.335805       0.33973
         13.1      0.334318      0.334424      0.335514      0.339096      0.339971
         13.2      0.334956       0.33534      0.337433      0.339394      0.340178
         13.3      0.335833      0.337156      0.339966       0.33967      0.340358
         13.4       0.33794      0.340537      0.340283      0.339986      0.340679
         13.5      0.341434      0.341248      0.340647      0.340355      0.341064
         13.6      0.345868      0.342844       0.34122      0.340798      0.341438
         13.7      0.346078       0.34604      0.342419      0.341338      0.341934
         13.8       0.34629      0.346357      0.344255      0.342251      0.342467
         13.9      0.346673      0.346719       0.34673      0.344056      0.343328
           14      0.347105      0.347128      0.347173      0.347635      0.345227
         14.1      0.347559      0.347584      0.347669      0.348325      0.348552
         14.2      0.348022      0.348093      0.348323      0.350006      0.353413
         14.3      0.348569      0.348692      0.349616       0.35313      0.353659
         14.4      0.349191      0.349613      0.351469      0.353382      0.353973
         14.5      0.350128      0.351324       0.35372      0.353661      0.354277
         14.6      0.352265      0.354482      0.354024      0.353986      0.354579
         14.7      0.355821      0.355239      0.354412      0.354364       0.35503
         14.8      0.359417      0.356754      0.355016      0.354787      0.355363
         14.9      0.359629      0.359658      0.356371      0.355331      0.355897
           15      0.359909       0.35997      0.358262      0.356267      0.356448
         15.1      0.360337      0.360365      0.360315      0.358112      0.357366
         15.2      0.360786       0.36081      0.360769       0.36112      0.359548
         15.3      0.361279       0.36131       0.36128      0.362009      0.362995
         15.4      0.361781      0.361847      0.361998      0.363615      0.366689
         15.5       0.36234      0.362483      0.363334       0.36628      0.367078
         15.6      0.363007      0.363559      0.365326      0.366605       0.36733
         15.7      0.364016       0.36528      0.367001      0.366906      0.367707
         15.8      0.366385      0.368025      0.367387      0.367271      0.368042
         15.9      0.370461      0.368859      0.367858      0.367696      0.368437
           16      0.372538      0.370425      0.368583      0.368186      0.368874
         16.1      0.372811      0.372804      0.370042      0.368817      0.369463
         16.2      0.373152       0.37318      0.372389      0.369964      0.370055
         16.3      0.373626      0.373608      0.373505      0.371787      0.371131
         16.4      0.374114      0.374093      0.373994      0.374328      0.373545
         16.5      0.374626      0.374606      0.374575      0.375456      0.378029
         16.6      0.375161       0.37518      0.375424      0.377124      0.379645
         16.7      0.375746      0.375886      0.376953      0.379302      0.379978
         16.8      0.376469      0.377061      0.379515      0.379698      0.380301
         16.9      0.377709      0.378786      0.380132       0.38006      0.380697
           17      0.380252       0.38097      0.380558      0.380488      0.381154
         17.1      0.384607      0.382123      0.381086       0.38096       0.38154
         17.2      0.385313       0.38382      0.381969      0.381509      0.382037
         17.3      0.385641      0.385606      0.383468      0.382262      0.382683
         17.4      0.386061      0.386031      0.385999      0.383658      0.383372
         17.5      0.386568      0.386496      0.386487       0.38577      0.384746
         17.6      0.387082      0.387021      0.387022       0.38759      0.387346
         17.7      0.387613      0.387567      0.387694      0.388876      0.391697
         17.8      0.388182      0.388174      0.388748      0.390873      0.392281
         17.9      0.388818      0.388976      0.390353      0.392096      0.392588
           18      0.389656      0.390381      0.392514        0.3925      0.393022
         18.1      0.391328      0.392662      0.392982       0.39291      0.393392
         18.2      0.394075      0.393869      0.393472      0.393378      0.393847
         18.3      0.397358      0.395227      0.394129       0.39388      0.394349
         18.4      0.397748      0.397452      0.395286      0.394483      0.394848
         18.5      0.398135      0.398105      0.397022      0.395392      0.395484
         18.6       0.39864      0.398573      0.398829      0.396946      0.396385
         18.7      0.399167      0.399081      0.399374       0.39943      0.398303
         18.8      0.399705      0.399636      0.399961      0.400421      0.401296
         18.9      0.400269      0.400232      0.400737      0.401921      0.404039
           19      0.400874      0.400932      0.402003      0.404009      0.404509
         19.1       0.40158      0.401977      0.403892       0.40449      0.404952
         19.2      0.402676      0.403554       0.40502      0.404896      0.405324
         19.3       0.40482      0.405592      0.405509      0.405342      0.405805
         19.4      0.408294      0.406625      0.406086      0.405827      0.406326
         19.5      0.409479      0.408139      0.406942      0.406372      0.406791
         19.6      0.409898      0.409813      0.408307      0.407082      0.407356
         19.7      0.410367      0.410327      0.410419      0.408294      0.408155
         19.8      0.410911      0.410848      0.411103      0.410129      0.409474
         19.9      0.411461      0.411409      0.411682       0.41182      0.411809
           20      0.412026      0.411999      0.412371      0.413058      0.415189
         20.1      0.412623      0.412651      0.413383      0.414868      0.416048
         20.2      0.413282      0.413495      0.414867      0.415968      0.416495
         20.3      0.414144      0.414837      0.416617      0.416428      0.416908
         20.4      0.415748      0.416832       0.41716      0.416877      0.417343
         20.5      0.418341      0.417968       0.41768       0.41737       0.41782
         20.6      0.420821      0.419215      0.418366      0.417905      0.418336
         20.7       0.42134      0.421095      0.419474      0.418543      0.418911
         20.8      0.421802      0.421779      0.421118        0.4195      0.419622
         20.9      0.422349      0.422316      0.422425      0.421021      0.420585
           21      0.422912       0.42288      0.423021      0.423002      0.422446
         21.1      0.423484      0.423477      0.423655      0.424097      0.425451
         21.2       0.42408      0.424112      0.424509      0.425556      0.427192
         21.3      0.424721      0.424867      0.425825      0.427047      0.427732
         21.4      0.425489      0.426001      0.427697      0.427603      0.428109
         21.5      0.426743      0.427617      0.428431      0.428076      0.428588
         21.6      0.428863      0.429135      0.428943      0.428585      0.429082
         21.7      0.431649      0.430287      0.429551      0.429133      0.429612
         21.8      0.432456      0.431982      0.430474      0.429754      0.430184
         21.9      0.432945      0.433013      0.431876      0.430598      0.430834
           22      0.433489      0.433571      0.433443      0.431913      0.431695
         22.1      0.434065      0.434134      0.434106      0.433779      0.433241
         22.2      0.434648      0.434729      0.434731      0.434972      0.435602
         22.3       0.43525      0.435351      0.435513      0.436276      0.437961
         22.4      0.435886      0.436057      0.436644      0.437923      0.438682
         22.5      0.436615      0.437017       0.43814      0.438636      0.439143
         22.6      0.437683      0.438433      0.439217      0.439144      0.439658
         22.7        0.4395      0.440049      0.439792      0.439668      0.440178
         22.8       0.44207      0.441162      0.440421      0.440228      0.440719
         22.9      0.443269      0.442582      0.441297      0.440843      0.441297
           23      0.443807      0.443816      0.442592      0.441623      0.441935
         23.1      0.444355      0.444428      0.444153      0.442767      0.442862
         23.2      0.444943      0.445006      0.444941      0.444374      0.444063
         23.3      0.445536      0.445609       0.44557      0.445751      0.446299
         23.4      0.446146      0.446237      0.446308      0.447015      0.448662
         23.5      0.446783      0.446936      0.447351      0.448574      0.449432
         23.6        0.4475      0.447839      0.448761       0.44944      0.449961
         23.7      0.448481      0.449153      0.449959      0.449987      0.450515
         23.8      0.450094      0.450699      0.450578      0.450527      0.451059
         23.9      0.452407      0.451815      0.451196      0.451099      0.451611
           24      0.453806        0.4531      0.452019      0.451717      0.452177
         24.1      0.454407      0.454362       0.45321       0.45248      0.452806
         24.2      0.454964      0.455038      0.454666      0.453602      0.453581
         24.3      0.455562      0.455632      0.455558      0.455177      0.454833
         24.4      0.456167      0.456245      0.456217      0.456525      0.456719
         24.5      0.456785       0.45688      0.456967      0.457677      0.458887
         24.6      0.457428      0.457578      0.457969      0.459062      0.459927
         24.7      0.458141      0.458471      0.459294      0.459991      0.460477
         24.8      0.459095       0.45971      0.460471       0.46057         0.461
         24.9      0.460594      0.461149      0.461138      0.461122      0.461536
           25      0.462697      0.462256      0.461772      0.461702      0.462091
         25.1      0.464106      0.463479       0.46255      0.462335      0.462688
         25.2      0.464763      0.464687      0.463668      0.463089      0.463325
         25.3       0.46534      0.465407      0.465018      0.464138      0.464099
         25.4      0.465946      0.466014      0.465963      0.465542       0.46529
         25.5       0.46656      0.466634       0.46665      0.466866       0.46707
         25.6      0.467188      0.467285      0.467414      0.468056      0.469024
         25.7      0.467839      0.468002      0.468396      0.469349      0.470051
         25.8      0.468565      0.468887       0.46966      0.470258      0.470657
         25.9      0.469518      0.470071      0.470759      0.470859      0.471213
           26      0.470975      0.471455      0.471452      0.471425      0.471766
         26.1      0.472895       0.47253      0.472109      0.472014      0.472337
         26.2      0.474214      0.473694      0.472918      0.472648      0.472932
         26.3      0.474905      0.474812      0.473964      0.473412      0.473591
         26.4      0.475503      0.475547      0.475202      0.474444      0.474414
         26.5      0.476119      0.476173      0.476109      0.475789      0.475602
         26.6      0.476743      0.476804       0.47681      0.477026      0.477326
         26.7      0.477378      0.477458      0.477593      0.478234      0.479128
         26.8       0.47804      0.478183      0.478597      0.479446      0.480028
         26.9      0.478788      0.479136      0.479789      0.480285      0.480663
           27      0.479782      0.480308      0.480801      0.480896      0.481245
         27.1      0.481233      0.481524       0.48151      0.481478      0.481831
         27.2      0.482952        0.4826      0.482198      0.482078      0.482433
         27.3      0.484132       0.48375      0.483003      0.482733       0.48307
         27.4      0.484841      0.484763      0.484074      0.483519      0.483761
         27.5      0.485459      0.485495      0.485209       0.48459      0.484558
         27.6      0.486085      0.486134      0.486089      0.485844      0.485805
         27.7      0.486717      0.486777      0.486824      0.487018      0.487429
         27.8      0.487362      0.487449       0.48765       0.48816      0.489001
         27.9      0.488045      0.488178      0.488658      0.489285      0.489865
           28      0.488833      0.489162      0.489759      0.490103      0.490517
         28.1       0.48989      0.490289      0.490678      0.490722       0.49109
         28.2      0.491328      0.491403      0.491401      0.491312      0.491675
         28.3      0.492799      0.492521      0.492104      0.491932      0.492234
         28.4      0.493858      0.493596       0.49297      0.492635      0.492893
         28.5      0.494587      0.494508      0.494007      0.493501      0.493635
         28.6      0.495224      0.495241      0.495094      0.494573      0.494663
         28.7      0.495857      0.495901      0.495943      0.495731      0.495986
         28.8      0.496503      0.496546      0.496683      0.496861      0.497464
         28.9      0.497168      0.497258      0.497529      0.498007      0.498742
           29      0.497895      0.498079       0.49849      0.498884      0.499669
         29.1      0.498782      0.499089      0.499444      0.499689      0.500549
         29.2      0.499932      0.500101      0.500293      0.500343      0.501627
         29.3      0.501238      0.501152      0.501076      0.500989      0.502846
         29.4      0.502247       0.50215      0.501963      0.501705      0.504164
         29.5        0.5031      0.503022      0.502885      0.502548      0.505417
         29.6      0.503905      0.503912      0.503763      0.503562      0.506777
         29.7      0.504672      0.504678      0.504639      0.504576      0.507935
         29.8       0.50542       0.50545      0.505516      0.505542      0.508783
         29.9      0.506223      0.506284      0.506434      0.506433      0.509472
           30      0.507112      0.507145      0.507267      0.507272      0.510008
         30.1      0.508038      0.508046      0.508097      0.508076      0.510202
         30.2      0.508969      0.508955      0.508963       0.50886      0.511084
         30.3      0.509885      0.509863      0.509822      0.509683      0.511633
         30.4      0.510774      0.510728      0.510683      0.510515      0.512266
         30.5      0.511623      0.511604      0.511533      0.511397      0.513088
         30.6       0.51245      0.512434      0.512393      0.512287      0.513912
         30.7      0.513254      0.513256      0.513254       0.51318       0.51482
         30.8      0.514071      0.514077       0.51411      0.514059      0.515612
         30.9      0.514912      0.514916      0.514972      0.514925      0.516373
           31      0.515768      0.515773      0.515818      0.515771       0.51711
         31.1       0.51664      0.516637      0.516662      0.516603      0.517849
         31.2      0.517518      0.517507      0.517509      0.517426      0.518674
         31.3      0.518391      0.518373      0.518355      0.518252       0.51939
         31.4      0.519254      0.519233      0.519201      0.519088      0.520174
         31.5      0.520098      0.520074      0.520045      0.519946      0.520972
         31.6      0.520932      0.520907       0.52089      0.520798      0.521745
         31.7      0.521751      0.521735      0.521733       0.52165      0.522614
         31.8      0.522576      0.522569      0.522577      0.522506      0.523484
         31.9      0.523404      0.523401      0.523415      0.523354      0.524251
           32      0.524242      0.524238      0.524249      0.524193      0.525104
         32.1      0.525085      0.525078      0.525084      0.525022      0.525851
         32.2      0.525933      0.525923      0.525919      0.525847      0.526706
         32.3      0.526781      0.526766       0.52675       0.52667      0.527435
         32.4      0.527625      0.527605      0.527581      0.527497      0.528288
         32.5      0.528458      0.528439      0.528412      0.528325      0.529035
         32.6      0.529283      0.529269      0.529242      0.529158      0.529891
         32.7      0.530102      0.530091      0.530074      0.529995      0.530654
         32.8      0.530919      0.530909      0.530901       0.53083      0.531514
         32.9      0.531737      0.531728      0.531725      0.531664      0.532382
           33      0.532558       0.53255      0.532549      0.532488      0.533131
         33.1      0.533385      0.533374       0.53337      0.533311      0.533973
         33.2      0.534212      0.534202      0.534191      0.534127      0.534762
         33.3       0.53504      0.535026      0.535011      0.534941      0.535552
         33.4      0.535866       0.53585      0.535829      0.535754      0.536383
         33.5      0.536687       0.53667      0.536645      0.536571      0.537221
         33.6      0.537502      0.537485      0.537461      0.537388      0.537972
         33.7      0.538311      0.538296      0.538277      0.538206      0.538816
         33.8      0.539118      0.539107      0.539091      0.539025      0.539655
         33.9      0.539926      0.539914      0.539902      0.539841      0.540403
           34      0.540734      0.540723      0.540713      0.540654      0.541238
         34.1      0.541542      0.541532      0.541522      0.541465      0.542078
         34.2      0.542354      0.542343      0.542328       0.54227      0.542802
         34.3      0.543166      0.543152      0.543136      0.543073      0.543618
         34.4      0.543975       0.54396       0.54394      0.543874      0.544452
         34.5      0.544782      0.544766      0.544744      0.544675      0.545195
         34.6      0.545585      0.545569      0.545546      0.545479      0.545997
         34.7      0.546384      0.546369      0.546347      0.546283      0.546811
         34.8       0.54718      0.547166      0.547148      0.547086      0.547647
         34.9      0.547975      0.547962      0.547946      0.547888      0.548388
           35       0.54877      0.548757      0.548743      0.548686      0.549188
         35.1      0.549566      0.549553      0.549538      0.549483      0.549999
         35.2      0.550362      0.550348      0.550332      0.550276      0.550817
         35.3      0.551157      0.551144      0.551125      0.551069      0.551605