# Probe 0 (1 0 0)
# Probe 1 (10 0 0)
# Probe 2 (20 0 0)
# Probe 3 (30 0 0)
# Probe 4 (40 0 0)
#       Probe             0             1             2             3             4
#        Time
            0    5.2308e+06    5.2308e+06    5.2308e+06    5.2308e+06    5.2308e+06
          0.1   5.23116e+06   5.23116e+06   5.23096e+06    5.2308e+06   5.21696e+06
          0.2    5.2308e+06    5.2308e+06    5.2308e+06   5.21289e+06   5.21296e+06
          0.3   5.23072e+06    5.2308e+06    5.2308e+06   5.21456e+06   5.21582e+06
          0.4   5.23071e+06   5.23071e+06   5.21401e+06   5.21569e+06   5.21395e+06
          0.5   5.23069e+06   5.23068e+06   5.21445e+06   5.21434e+06   5.21508e+06
          0.6   5.23069e+06   5.21556e+06   5.21505e+06   5.21391e+06   5.21304e+06
          0.7   5.23003e+06   5.21484e+06    5.2148e+06   5.21421e+06   5.21409e+06
          0.8   5.19331e+06   5.21175e+06   5.21471e+06   5.21364e+06   5.21438e+06
          0.9   5.19506e+06   5.20812e+06   5.21071e+06   5.21152e+06   5.21574e+06
            1   5.19456e+06   5.19476e+06   5.20985e+06   5.21027e+06   5.21085e+06
          1.1   5.19427e+06   5.19472e+06   5.19677e+06   5.20942e+06   5.20952e+06
          1.2   5.19341e+06   5.19358e+06   5.19287e+06   5.20832e+06   5.20933e+06
          1.3   5.19259e+06   5.19265e+06   5.19272e+06   5.19163e+06   5.20783e+06
          1.4   5.19254e+06   5.19257e+06   5.19224e+06   5.19181e+06   5.20478e+06
          1.5   5.19229e+06   5.19216e+06   5.19173e+06   5.19013e+06   5.17124e+06
          1.6   5.19196e+06   5.19169e+06   5.19092e+06   5.18599e+06   5.17504e+06
          1.7   5.19143e+06   5.19107e+06   5.18921e+06   5.17505e+06   5.17347e+06
          1.8    5.1908e+06   5.18971e+06   5.17982e+06   5.17495e+06     5.177e+06
          1.9   5.18974e+06   5.18807e+06   5.17448e+06   5.17446e+06   5.17525e+06
            2   5.18746e+06   5.17361e+06   5.17374e+06   5.17386e+06   5.17398e+06
          2.1   5.18169e+06   5.17285e+06   5.17337e+06   5.17328e+06   5.17372e+06
          2.2    5.1577e+06   5.17108e+06   5.17285e+06   5.17294e+06   5.17348e+06
          2.3   5.15715e+06   5.16434e+06   5.17173e+06   5.17266e+06   5.17302e+06
          2.4    5.1566e+06    5.1561e+06   5.17007e+06   5.17217e+06   5.17269e+06
          2.5   5.15587e+06   5.15574e+06   5.15571e+06   5.17081e+06   5.17232e+06
          2.6   5.15548e+06   5.15544e+06   5.15573e+06    5.1684e+06   5.17183e+06
          2.7    5.1551e+06   5.15531e+06   5.15502e+06   5.15485e+06   5.16554e+06
          2.8   5.15501e+06   5.15483e+06   5.15471e+06    5.1535e+06   5.15256e+06
          2.9   5.15481e+06   5.15452e+06    5.1542e+06   5.15193e+06   5.13657e+06
            3   5.15432e+06   5.15428e+06   5.15283e+06   5.13857e+06   5.13722e+06
          3.1   5.15386e+06   5.15353e+06   5.15058e+06   5.13756e+06   5.13795e+06
          3.2   5.15341e+06   5.15178e+06   5.13784e+06   5.13765e+06   5.13801e+06
          3.3   5.15135e+06   5.14104e+06   5.13743e+06   5.13761e+06   5.13752e+06
          3.4   5.14791e+06    5.1366e+06   5.13723e+06   5.13737e+06   5.13707e+06
          3.5   5.12156e+06   5.13531e+06    5.1369e+06   5.13719e+06   5.13768e+06
          3.6   5.12074e+06   5.13264e+06   5.13627e+06   5.13687e+06   5.13619e+06
          3.7   5.12132e+06   5.12085e+06   5.13473e+06   5.13635e+06   5.13704e+06
          3.8    5.1203e+06    5.1203e+06   5.12605e+06   5.13493e+06   5.13637e+06
          3.9   5.11995e+06   5.11999e+06   5.12016e+06   5.13289e+06   5.13534e+06
            4   5.11961e+06   5.11978e+06   5.11952e+06   5.11872e+06   5.12982e+06
          4.1    5.1196e+06   5.11926e+06   5.11895e+06   5.11804e+06   5.12189e+06
          4.2   5.11926e+06   5.11888e+06   5.11833e+06    5.1163e+06   5.10266e+06
          4.3   5.11857e+06   5.11851e+06    5.1172e+06   5.10772e+06   5.10337e+06
          4.4   5.11785e+06   5.11775e+06   5.11497e+06    5.1025e+06    5.1027e+06
          4.5   5.11728e+06   5.11569e+06   5.10254e+06   5.10259e+06   5.10293e+06
          4.6   5.11551e+06   5.11114e+06   5.10204e+06   5.10281e+06   5.10252e+06
          4.7   5.11192e+06   5.10094e+06   5.10189e+06   5.10195e+06   5.09952e+06
          4.8   5.09371e+06   5.10001e+06   5.10128e+06   5.10177e+06   5.10216e+06
          4.9   5.08582e+06   5.09737e+06   5.10066e+06   5.10146e+06   5.10114e+06
            5   5.08564e+06   5.08562e+06   5.09911e+06   5.10068e+06   5.10169e+06
          5.1   5.08543e+06   5.08549e+06   5.09254e+06   5.09967e+06   5.10044e+06
          5.2   5.08524e+06   5.08508e+06   5.08489e+06   5.09689e+06   5.09944e+06
          5.3   5.08483e+06   5.08472e+06   5.08448e+06   5.08491e+06   5.09739e+06
          5.4   5.08443e+06   5.08431e+06   5.08392e+06   5.08305e+06   5.08641e+06
          5.5     5.084e+06   5.08376e+06   5.08323e+06   5.08087e+06   5.06881e+06
          5.6   5.08344e+06   5.08307e+06     5.082e+06   5.07151e+06   5.06862e+06
          5.7   5.08263e+06   5.08215e+06   5.07907e+06   5.06803e+06   5.06819e+06
          5.8   5.08171e+06   5.08032e+06   5.06816e+06   5.06782e+06   5.06843e+06
          5.9   5.08004e+06   5.07516e+06   5.06741e+06   5.06767e+06   5.06824e+06
            6   5.07559e+06   5.06634e+06    5.0672e+06   5.06742e+06    5.0668e+06
          6.1   5.05456e+06   5.06531e+06   5.06673e+06   5.06714e+06   5.06773e+06
          6.2   5.05202e+06   5.06236e+06   5.06592e+06   5.06669e+06   5.06733e+06
          6.3   5.05182e+06   5.05192e+06   5.06355e+06     5.066e+06   5.06658e+06
          6.4   5.05168e+06    5.0516e+06   5.05404e+06   5.06461e+06   5.06589e+06
          6.5   5.05127e+06   5.05109e+06   5.05085e+06    5.0612e+06   5.06464e+06
          6.6   5.05075e+06   5.05066e+06   5.05033e+06   5.04946e+06   5.06148e+06
          6.7   5.05016e+06   5.05013e+06   5.04967e+06   5.04862e+06   5.04803e+06
          6.8   5.04964e+06    5.0494e+06   5.04883e+06   5.04569e+06   5.03528e+06
          6.9   5.04887e+06   5.04867e+06   5.04714e+06   5.03446e+06   5.03408e+06
            7     5.048e+06   5.04748e+06   5.04335e+06   5.03418e+06   5.03234e+06
          7.1   5.04692e+06   5.04466e+06   5.03386e+06   5.03414e+06    5.0347e+06
          7.2   5.04446e+06    5.0369e+06   5.03362e+06   5.03397e+06   5.03459e+06
          7.3     5.038e+06   5.03231e+06   5.03338e+06   5.03369e+06   5.03414e+06
          7.4   5.01754e+06   5.03075e+06   5.03283e+06   5.03325e+06   5.03387e+06
          7.5   5.01886e+06   5.02573e+06   5.03158e+06   5.03275e+06   5.03339e+06
          7.6   5.01863e+06   5.01879e+06   5.02817e+06   5.03179e+06   5.03259e+06
          7.7   5.01842e+06   5.01827e+06   5.01798e+06   5.02971e+06   5.02913e+06
          7.8   5.01781e+06   5.01775e+06   5.01747e+06   5.02446e+06   5.02919e+06
          7.9   5.01715e+06    5.0172e+06   5.01678e+06   5.01553e+06   5.02357e+06
            8   5.01669e+06   5.01639e+06   5.01601e+06    5.0143e+06   5.00114e+06
          8.1    5.0159e+06   5.01566e+06   5.01468e+06   5.01052e+06   4.99952e+06
          8.2   5.01503e+06   5.01471e+06   5.01218e+06   5.00112e+06   5.00179e+06
          8.3   5.01407e+06   5.01299e+06   5.00507e+06   5.00097e+06   4.99908e+06
          8.4   5.01243e+06   5.00929e+06   5.00074e+06     5.001e+06    5.0017e+06
          8.5   5.00868e+06   4.99942e+06   5.00036e+06   5.00077e+06   5.00134e+06
          8.6   4.99874e+06   4.99857e+06   5.00009e+06   5.00042e+06   5.00053e+06
          8.7   4.98603e+06    4.9954e+06   4.99933e+06   5.00003e+06   5.00057e+06
          8.8   4.98618e+06   4.98606e+06   4.99746e+06   4.99932e+06   4.99991e+06
          8.9   4.98586e+06   4.98598e+06    4.9932e+06   4.99796e+06   4.99908e+06
            9   4.98553e+06    4.9854e+06   4.98513e+06   4.99417e+06   4.99742e+06
          9.1   4.98503e+06   4.98479e+06   4.98447e+06   4.98454e+06   4.99403e+06
          9.2   4.98433e+06   4.98419e+06   4.98364e+06   4.98256e+06   4.98617e+06
          9.3   4.98349e+06   4.98346e+06   4.98269e+06   4.97933e+06   4.96979e+06
          9.4   4.98267e+06   4.98252e+06   4.98095e+06   4.97082e+06   4.96736e+06
          9.5   4.98174e+06   4.98108e+06   4.97697e+06   4.96887e+06   4.96688e+06
          9.6   4.98058e+06   4.97843e+06   4.96847e+06    4.9689e+06   4.96904e+06
          9.7   4.97805e+06    4.9704e+06   4.96836e+06   4.96872e+06    4.9691e+06
          9.8    4.9712e+06   4.96708e+06   4.96812e+06   4.96844e+06   4.96819e+06
          9.9   4.95451e+06   4.96511e+06   4.96756e+06   4.96809e+06   4.96605e+06
           10   4.95478e+06   4.96112e+06   4.96622e+06    4.9675e+06    4.9667e+06
         10.1   4.95436e+06   4.95449e+06   4.96221e+06   4.96648e+06   4.96735e+06
         10.2   4.95417e+06   4.95405e+06   4.95371e+06   4.96403e+06   4.96597e+06
         10.3   4.95356e+06   4.95333e+06   4.95312e+06   4.95921e+06    4.9632e+06
         10.4   4.95285e+06   4.95279e+06    4.9523e+06   4.95134e+06   4.95533e+06
         10.5   4.95211e+06    4.9519e+06   4.95144e+06   4.94913e+06   4.93739e+06
         10.6   4.95122e+06   4.95098e+06   4.94986e+06   4.94512e+06   4.93855e+06
         10.7   4.95027e+06   4.94987e+06   4.94663e+06   4.93762e+06   4.93822e+06
         10.8   4.94916e+06   4.94776e+06   4.93744e+06   4.93756e+06   4.93817e+06
         10.9   4.94724e+06   4.94369e+06    4.9371e+06   4.93749e+06   4.93822e+06
           11   4.94178e+06   4.93595e+06   4.93686e+06   4.93725e+06   4.93741e+06
         11.1   4.92837e+06   4.93458e+06   4.93651e+06   4.93692e+06   4.93658e+06
         11.2   4.92369e+06   4.93092e+06   4.93545e+06    4.9364e+06    4.9369e+06
         11.3   4.92378e+06   4.92373e+06   4.93262e+06   4.93551e+06   4.93627e+06
         11.4   4.92346e+06   4.92342e+06   4.92554e+06   4.93364e+06   4.93318e+06
         11.5   4.92296e+06   4.92269e+06   4.92239e+06    4.9289e+06   4.93244e+06
         11.6   4.92222e+06   4.92203e+06    4.9216e+06   4.92068e+06   4.92671e+06
         11.7   4.92134e+06   4.92125e+06   4.92062e+06   4.91898e+06   4.91598e+06
         11.8   4.92043e+06   4.92031e+06   4.91939e+06   4.91481e+06   4.90772e+06
         11.9   4.91948e+06   4.91913e+06   4.91651e+06   4.90726e+06   4.90666e+06
           12   4.91837e+06   4.91727e+06   4.91212e+06   4.90707e+06   4.90755e+06
         12.1   4.91672e+06   4.91328e+06   4.90661e+06   4.90705e+06   4.90768e+06
         12.2   4.91203e+06   4.90553e+06    4.9065e+06   4.90684e+06   4.90735e+06
         12.3   4.90338e+06   4.90451e+06   4.90612e+06   4.90648e+06   4.90706e+06
         12.4   4.89386e+06   4.90098e+06   4.90524e+06   4.90603e+06   4.90591e+06
         12.5   4.89391e+06   4.89382e+06   4.90263e+06   4.90518e+06   4.90604e+06
         12.6   4.89351e+06   4.89351e+06   4.89838e+06   4.90347e+06   4.90484e+06
         12.7   4.89296e+06   4.89275e+06   4.89247e+06   4.89924e+06   4.90279e+06
         12.8   4.89214e+06   4.89199e+06   4.89161e+06   4.89067e+06   4.89706e+06
         12.9   4.89129e+06   4.89118e+06    4.8906e+06   4.88918e+06   4.88904e+06
           13   4.89034e+06   4.89017e+06   4.88938e+06   4.88522e+06   4.87859e+06
         13.1   4.88939e+06   4.88906e+06    4.8867e+06   4.87773e+06   4.87612e+06
         13.2   4.88823e+06   4.88725e+06   4.88243e+06   4.87737e+06   4.87781e+06
         13.3   4.88665e+06   4.88354e+06   4.87698e+06   4.87727e+06   4.87781e+06
         13.4   4.88221e+06   4.87602e+06   4.87674e+06   4.87708e+06   4.87762e+06
         13.5   4.87466e+06   4.87488e+06   4.87636e+06   4.87676e+06   4.87641e+06
         13.6   4.86469e+06   4.87162e+06   4.87546e+06   4.87623e+06   4.87672e+06
         13.7    4.8645e+06   4.86454e+06   4.87295e+06   4.87542e+06   4.87398e+06
         13.8   4.86429e+06   4.86413e+06   4.86892e+06   4.87362e+06   4.87499e+06
         13.9   4.86358e+06   4.86345e+06   4.86318e+06   4.86949e+06    4.8731e+06
           14   4.86273e+06   4.86263e+06   4.86227e+06   4.86129e+06   4.86733e+06
         14.1   4.86182e+06   4.86171e+06   4.86126e+06   4.85974e+06   4.85894e+06
         14.2   4.86091e+06   4.86069e+06    4.8599e+06   4.85589e+06   4.84971e+06
         14.3   4.85984e+06   4.85949e+06     4.857e+06   4.84875e+06   4.84921e+06
         14.4   4.85872e+06   4.85764e+06    4.8529e+06    4.8484e+06   4.84888e+06
         14.5   4.85696e+06   4.85408e+06   4.84795e+06   4.84825e+06   4.84862e+06
         14.6   4.85236e+06   4.84698e+06    4.8477e+06   4.84801e+06    4.8485e+06
         14.7   4.84446e+06   4.84564e+06   4.84722e+06    4.8476e+06   4.84629e+06
         14.8   4.83611e+06   4.84241e+06   4.84621e+06   4.84704e+06   4.84756e+06
         14.9   4.83594e+06   4.83583e+06   4.84341e+06    4.8461e+06   4.84499e+06
           15   4.83563e+06   4.83545e+06   4.83926e+06   4.84418e+06   4.84561e+06
         15.1   4.83478e+06   4.83468e+06   4.83435e+06   4.83976e+06    4.8433e+06
         15.2   4.83388e+06   4.83378e+06   4.83343e+06   4.83256e+06   4.83719e+06
         15.3   4.83286e+06   4.83276e+06   4.83235e+06   4.83059e+06   4.82851e+06
         15.4   4.83186e+06   4.83168e+06   4.83078e+06    4.8268e+06   4.82132e+06
         15.5   4.83077e+06    4.8304e+06   4.82768e+06   4.82042e+06   4.81855e+06
         15.6   4.82953e+06   4.82819e+06   4.82317e+06   4.81997e+06   4.82056e+06
         15.7    4.8276e+06    4.8246e+06   4.81954e+06   4.81979e+06   4.81859e+06
         15.8   4.82239e+06   4.81832e+06   4.81917e+06   4.81946e+06   4.82001e+06
         15.9   4.81269e+06   4.81665e+06   4.81858e+06   4.81896e+06   4.81876e+06
           16   4.80802e+06   4.81319e+06   4.81734e+06   4.81828e+06   4.81887e+06
         16.1   4.80785e+06   4.80774e+06   4.81414e+06    4.8172e+06   4.81655e+06
         16.2   4.80739e+06   4.80718e+06   4.80853e+06   4.81468e+06   4.81648e+06
         16.3   4.80641e+06   4.80632e+06   4.80599e+06   4.81036e+06   4.81214e+06
         16.4    4.8054e+06    4.8053e+06   4.80499e+06    4.8041e+06   4.80747e+06
         16.5   4.80434e+06   4.80423e+06   4.80379e+06   4.80158e+06   4.79552e+06
         16.6   4.80325e+06   4.80304e+06    4.8019e+06   4.79765e+06   4.79344e+06
         16.7    4.8021e+06   4.80157e+06   4.79841e+06   4.79252e+06   4.79305e+06
         16.8   4.80073e+06     4.799e+06   4.79239e+06   4.79204e+06   4.79259e+06
         16.9   4.79819e+06   4.79512e+06    4.7915e+06   4.79178e+06   4.79226e+06
           17   4.79229e+06   4.79015e+06   4.79104e+06   4.79131e+06   4.79009e+06
         17.1   4.78179e+06   4.78785e+06   4.79029e+06   4.79072e+06   4.79121e+06
         17.2   4.78048e+06   4.78415e+06   4.78857e+06    4.7899e+06   4.79053e+06
         17.3   4.78013e+06   4.78001e+06   4.78518e+06   4.78846e+06   4.78768e+06
         17.4   4.77939e+06   4.77924e+06   4.77896e+06   4.78532e+06   4.78622e+06
         17.5   4.77833e+06   4.77827e+06   4.77796e+06   4.78022e+06   4.78403e+06
         17.6   4.77723e+06   4.77716e+06   4.77685e+06   4.77572e+06   4.77704e+06
         17.7   4.77611e+06     4.776e+06   4.77543e+06   4.77259e+06   4.76641e+06
         17.8   4.77494e+06    4.7747e+06   4.77301e+06   4.76763e+06   4.76463e+06
         17.9   4.77369e+06   4.77296e+06   4.76935e+06   4.76494e+06   4.76542e+06
           18   4.77208e+06   4.76984e+06   4.76439e+06   4.76449e+06   4.76395e+06
         18.1   4.76838e+06   4.76442e+06   4.76384e+06   4.76408e+06    4.7645e+06
         18.2   4.76182e+06   4.76197e+06   4.76321e+06   4.76349e+06   4.76394e+06
         18.3   4.75367e+06   4.75906e+06   4.76211e+06   4.76276e+06   4.76276e+06
         18.4   4.75321e+06   4.75382e+06   4.75965e+06   4.76171e+06   4.76236e+06
         18.5   4.75265e+06    4.7525e+06   4.75564e+06   4.75971e+06   4.76099e+06
         18.6   4.75161e+06   4.75153e+06   4.75133e+06   4.75585e+06   4.75853e+06
         18.7   4.75047e+06   4.75044e+06   4.75015e+06   4.74957e+06   4.75326e+06
         18.8   4.74933e+06   4.74923e+06   4.74889e+06   4.74725e+06   4.74503e+06
         18.9   4.74812e+06   4.74795e+06   4.74712e+06   4.74369e+06   4.73953e+06
           19   4.74687e+06   4.74648e+06   4.74401e+06   4.73845e+06    4.7387e+06
         19.1   4.74547e+06   4.74415e+06   4.73936e+06   4.73764e+06   4.73621e+06
         19.2   4.74321e+06   4.74057e+06   4.73701e+06   4.73718e+06   4.73763e+06
         19.3   4.73814e+06   4.73575e+06   4.73638e+06    4.7366e+06     4.737e+06
         19.4   4.72938e+06   4.73355e+06    4.7355e+06   4.73587e+06    4.7354e+06
         19.5   4.72668e+06    4.7301e+06   4.73386e+06   4.73493e+06   4.73509e+06
         19.6   4.72608e+06   4.72609e+06   4.73065e+06    4.7335e+06   4.73439e+06
         19.7    4.7252e+06   4.72509e+06    4.7253e+06   4.73055e+06   4.73254e+06
         19.8   4.72401e+06   4.72398e+06   4.72374e+06   4.72584e+06   4.72861e+06
         19.9   4.72281e+06   4.72274e+06   4.72247e+06   4.72154e+06   4.72202e+06
           20   4.72157e+06   4.72147e+06   4.72092e+06   4.71847e+06   4.71342e+06
         20.1   4.72029e+06   4.72005e+06   4.71851e+06   4.71389e+06   4.71239e+06
         20.2   4.71893e+06   4.71821e+06    4.7149e+06   4.71129e+06   4.71119e+06
         20.3   4.71714e+06    4.7152e+06   4.71066e+06   4.71062e+06   4.71003e+06
         20.4   4.71342e+06   4.71033e+06   4.70983e+06   4.71002e+06   4.71042e+06
         20.5   4.70691e+06   4.70781e+06   4.70901e+06   4.70927e+06   4.70971e+06
         20.6   4.70064e+06    4.7049e+06   4.70768e+06   4.70837e+06   4.70887e+06
         20.7   4.69979e+06   4.70028e+06   4.70514e+06   4.70713e+06   4.70775e+06
         20.8   4.69899e+06   4.69889e+06   4.70093e+06   4.70487e+06   4.70627e+06
         20.9   4.69779e+06   4.69775e+06    4.6976e+06   4.70101e+06   4.70354e+06
           21   4.69653e+06   4.69649e+06   4.69624e+06   4.69581e+06    4.6982e+06
         21.1   4.69525e+06   4.69516e+06   4.69481e+06   4.69306e+06   4.68958e+06
         21.2   4.69394e+06   4.69375e+06   4.69276e+06    4.6893e+06   4.68597e+06
         21.3   4.69256e+06   4.69209e+06   4.68956e+06   4.68534e+06   4.68374e+06
         21.4   4.69095e+06   4.68951e+06    4.6851e+06   4.68436e+06   4.68479e+06
         21.5   4.68812e+06   4.68559e+06   4.68357e+06   4.68368e+06   4.68408e+06
         21.6   4.68279e+06   4.68199e+06   4.68271e+06    4.6829e+06    4.6833e+06
         21.7   4.67546e+06   4.67937e+06   4.68151e+06   4.68198e+06   4.68245e+06
         21.8   4.67379e+06   4.67543e+06   4.67939e+06   4.68083e+06    4.6814e+06
         21.9   4.67292e+06   4.67291e+06    4.6759e+06   4.67894e+06   4.67998e+06
           22   4.67175e+06    4.6717e+06   4.67179e+06   4.67558e+06   4.67765e+06
         22.1   4.67044e+06   4.67041e+06    4.6702e+06   4.67062e+06   4.67326e+06
         22.2   4.66912e+06   4.66905e+06   4.66876e+06   4.66751e+06   4.66617e+06
         22.3   4.66776e+06   4.66761e+06   4.66686e+06   4.66411e+06   4.66087e+06
         22.4   4.66633e+06   4.66596e+06   4.66401e+06   4.65988e+06   4.65864e+06
         22.5   4.66476e+06   4.66367e+06   4.66002e+06   4.65838e+06   4.65879e+06
         22.6   4.66236e+06   4.66024e+06   4.65757e+06   4.65759e+06   4.65799e+06
         22.7   4.65776e+06   4.65625e+06   4.65658e+06   4.65675e+06   4.65717e+06
         22.8   4.65089e+06   4.65376e+06   4.65543e+06    4.6558e+06   4.65624e+06
         22.9   4.64803e+06    4.6503e+06   4.65354e+06   4.65462e+06   4.65515e+06
           23   4.64702e+06   4.64715e+06   4.65038e+06    4.6529e+06   4.65379e+06
         23.1   4.64586e+06   4.64581e+06   4.64625e+06    4.6499e+06    4.6503e+06
         23.2    4.6445e+06   4.64447e+06   4.64431e+06   4.64544e+06   4.64788e+06
         23.3   4.64311e+06   4.64307e+06    4.6428e+06   4.64187e+06   4.64061e+06
         23.4   4.64171e+06   4.64158e+06   4.64097e+06   4.63867e+06   4.63444e+06
         23.5   4.64024e+06   4.63996e+06   4.63835e+06   4.63465e+06   4.63379e+06
         23.6   4.63866e+06   4.63779e+06   4.63464e+06   4.63262e+06   4.63255e+06
         23.7   4.63641e+06    4.6346e+06    4.6318e+06   4.63168e+06   4.63117e+06
         23.8   4.63224e+06   4.63068e+06   4.63064e+06   4.63077e+06   4.62967e+06
         23.9   4.62604e+06   4.62808e+06   4.62945e+06   4.62976e+06   4.62862e+06
           24   4.62249e+06   4.62485e+06   4.62766e+06   4.62855e+06   4.62774e+06
         24.1   4.62128e+06   4.62157e+06    4.6247e+06   4.62686e+06   4.62717e+06
         24.2   4.62007e+06   4.62003e+06   4.62079e+06   4.62408e+06   4.62562e+06
         24.3   4.61867e+06   4.61864e+06   4.61853e+06    4.6199e+06   4.62169e+06
         24.4   4.61724e+06   4.61718e+06   4.61694e+06   4.61622e+06   4.61663e+06
         24.5   4.61577e+06   4.61566e+06   4.61511e+06   4.61306e+06   4.61054e+06
         24.6   4.61427e+06     4.614e+06   4.61255e+06   4.60924e+06   4.60714e+06
         24.7   4.61262e+06   4.61186e+06   4.60906e+06   4.60702e+06   4.60568e+06
         24.8   4.61037e+06   4.60875e+06   4.60616e+06   4.60592e+06   4.60463e+06
         24.9   4.60647e+06   4.60505e+06   4.60482e+06   4.60494e+06   4.60359e+06
           25   4.60078e+06   4.60234e+06   4.60356e+06   4.60384e+06   4.60259e+06
         25.1   4.59707e+06    4.5992e+06   4.60173e+06   4.60257e+06   4.60163e+06
         25.2   4.59565e+06   4.59606e+06   4.59887e+06   4.60083e+06   4.60087e+06
         25.3   4.59438e+06   4.59436e+06   4.59519e+06   4.59811e+06   4.59947e+06
         25.4   4.59292e+06   4.59289e+06   4.59283e+06   4.59414e+06     4.596e+06
         25.5   4.59142e+06   4.59138e+06   4.59114e+06   4.59054e+06   4.59072e+06
         25.6    4.5899e+06    4.5898e+06   4.58926e+06   4.58735e+06   4.58472e+06
         25.7   4.58834e+06   4.58806e+06   4.58669e+06   4.58376e+06   4.58291e+06
         25.8   4.58665e+06   4.58588e+06   4.58336e+06    4.5815e+06    4.5816e+06
         25.9    4.5843e+06   4.58283e+06   4.58059e+06   4.58029e+06    4.5805e+06
           26    4.5804e+06   4.57934e+06    4.5791e+06   4.57919e+06   4.57934e+06
         26.1   4.57513e+06   4.57655e+06   4.57773e+06   4.57802e+06   4.57816e+06
         26.2   4.57167e+06   4.57343e+06   4.57581e+06   4.57665e+06    4.5769e+06
         26.3    4.5701e+06   4.57052e+06   4.57291e+06   4.57481e+06   4.57549e+06
         26.4   4.56872e+06   4.56872e+06   4.56951e+06   4.57201e+06    4.5734e+06
         26.5   4.56722e+06    4.5672e+06   4.56718e+06   4.56823e+06    4.5699e+06
         26.6   4.56566e+06   4.56562e+06   4.56537e+06   4.56474e+06   4.56377e+06
         26.7    4.5641e+06   4.56398e+06   4.56339e+06   4.56152e+06   4.55977e+06
         26.8   4.56248e+06   4.56216e+06   4.56077e+06   4.55819e+06   4.55754e+06
         26.9   4.56066e+06   4.55988e+06   4.55753e+06   4.55602e+06   4.55621e+06
           27   4.55812e+06   4.55682e+06   4.55501e+06   4.55471e+06   4.55499e+06
         27.1   4.55417e+06   4.55353e+06   4.55344e+06   4.55353e+06   4.55371e+06
         27.2   4.54937e+06   4.55069e+06   4.55192e+06   4.55226e+06   4.55238e+06
         27.3   4.54626e+06   4.54765e+06   4.54982e+06   4.55078e+06    4.5501e+06
         27.4    4.5446e+06   4.54497e+06    4.5469e+06   4.54875e+06   4.54922e+06
         27.5   4.54312e+06   4.54313e+06    4.5438e+06   4.54582e+06   4.54714e+06
         27.6   4.54156e+06   4.54152e+06   4.54151e+06   4.54219e+06   4.54341e+06
         27.7   4.53994e+06   4.53988e+06   4.53961e+06   4.53885e+06   4.53837e+06
         27.8   4.53831e+06   4.53817e+06   4.53748e+06    4.5356e+06   4.53303e+06
         27.9   4.53661e+06   4.53623e+06   4.53477e+06   4.53261e+06   4.53207e+06
           28   4.53463e+06   4.53377e+06   4.53176e+06   4.53061e+06    4.5306e+06
         28.1   4.53177e+06   4.53072e+06   4.52946e+06   4.52921e+06   4.52932e+06
         28.2   4.52776e+06   4.52767e+06    4.5278e+06   4.52792e+06   4.52808e+06
         28.3   4.52364e+06   4.52477e+06   4.52607e+06   4.52652e+06   4.52683e+06
         28.4   4.52091e+06   4.52186e+06   4.52377e+06   4.52484e+06   4.52534e+06
         28.5   4.51912e+06   4.51945e+06   4.52085e+06   4.52254e+06   4.52338e+06
         28.6   4.51754e+06   4.51758e+06   4.51806e+06    4.5195e+06    4.5206e+06
         28.7    4.5159e+06   4.51587e+06   4.51584e+06   4.51613e+06   4.51693e+06
         28.8   4.51423e+06   4.51415e+06   4.51377e+06   4.51287e+06   4.51236e+06
         28.9   4.51252e+06   4.51231e+06   4.51144e+06   4.50977e+06   4.50917e+06
           29   4.51065e+06   4.51016e+06    4.5087e+06   4.50723e+06   4.50692e+06
         29.1   4.50826e+06   4.50749e+06   4.50615e+06   4.50541e+06   4.50549e+06
         29.2   4.50493e+06   4.50451e+06   4.50416e+06   4.50406e+06   4.50318e+06
         29.3   4.50098e+06   4.50163e+06   4.50241e+06   4.50271e+06   4.50304e+06
         29.4   4.49842e+06   4.49886e+06       4.5e+06    4.5009e+06    4.5015e+06
         29.5   4.49638e+06   4.49657e+06   4.49728e+06   4.49823e+06   4.49867e+06
         29.6   4.49437e+06   4.49451e+06   4.49485e+06   4.49525e+06   4.49554e+06
         29.7   4.49245e+06   4.49249e+06   4.49248e+06   4.49229e+06   4.49101e+06
         29.8   4.49054e+06   4.49042e+06   4.48999e+06   4.48953e+06   4.48953e+06
         29.9   4.48837e+06   4.48812e+06   4.48759e+06   4.48714e+06     4.487e+06
           30   4.48587e+06   4.48573e+06   4.48535e+06   4.48494e+06   4.48502e+06
         30.1   4.48328e+06   4.48322e+06   4.48309e+06   4.48286e+06   4.48277e+06
         30.2   4.48069e+06   4.48072e+06   4.48078e+06   4.48085e+06   4.48081e+06
         30.3   4.47818e+06   4.47824e+06   4.47845e+06    4.4786e+06   4.47877e+06
         30.4   4.47575e+06   4.47586e+06   4.47609e+06    4.4763e+06   4.47677e+06
         30.5   4.47344e+06   4.47353e+06   4.47374e+06   4.47389e+06   4.47408e+06
         30.6    4.4712e+06   4.47128e+06   4.47135e+06   4.47138e+06    4.4715e+06
         30.7   4.46904e+06     4.469e+06   4.46894e+06   4.46886e+06   4.46775e+06
         30.8    4.4668e+06   4.46671e+06   4.46656e+06   4.46639e+06   4.46656e+06
         30.9   4.46447e+06    4.4644e+06   4.46422e+06     4.464e+06   4.46407e+06
           31   4.46207e+06   4.46203e+06   4.46188e+06   4.46168e+06    4.4618e+06
         31.1   4.45964e+06    4.4596e+06   4.45953e+06   4.45944e+06   4.45953e+06
         31.2   4.45719e+06    4.4572e+06   4.45719e+06   4.45715e+06   4.45738e+06
         31.3   4.45475e+06   4.45477e+06   4.45484e+06   4.45487e+06   4.45508e+06
         31.4   4.45234e+06    4.4524e+06   4.45247e+06   4.45255e+06   4.45126e+06
         31.5   4.44999e+06   4.45004e+06   4.45012e+06   4.45017e+06   4.45033e+06
         31.6    4.4477e+06    4.4477e+06   4.44774e+06   4.44776e+06   4.44792e+06
         31.7   4.44538e+06   4.44537e+06   4.44537e+06   4.44534e+06   4.44547e+06
         31.8   4.44309e+06   4.44305e+06   4.44299e+06   4.44291e+06   4.44183e+06
         31.9   4.44076e+06   4.44073e+06   4.44063e+06   4.44051e+06   4.44062e+06
           32   4.43841e+06   4.43837e+06   4.43826e+06   4.43815e+06   4.43707e+06
         32.1     4.436e+06   4.43597e+06   4.43591e+06   4.43583e+06   4.43596e+06
         32.2   4.43359e+06   4.43358e+06   4.43356e+06    4.4335e+06   4.43246e+06
         32.3   4.43118e+06   4.43119e+06   4.43119e+06   4.43118e+06   4.43138e+06
         32.4    4.4288e+06   4.42881e+06   4.42885e+06   4.42886e+06   4.42822e+06
         32.5   4.42642e+06   4.42644e+06   4.42648e+06   4.42648e+06   4.42672e+06
         32.6   4.42407e+06   4.42408e+06    4.4241e+06    4.4241e+06   4.42444e+06
         32.7   4.42174e+06   4.42173e+06   4.42174e+06    4.4217e+06   4.42185e+06
         32.8   4.41942e+06    4.4194e+06   4.41936e+06   4.41931e+06   4.41944e+06
         32.9   4.41706e+06   4.41704e+06   4.41699e+06   4.41692e+06   4.41656e+06
           33   4.41471e+06   4.41468e+06   4.41463e+06   4.41454e+06   4.41474e+06
         33.1   4.41233e+06   4.41231e+06   4.41226e+06   4.41219e+06   4.41232e+06
         33.2   4.40993e+06   4.40994e+06   4.40989e+06   4.40985e+06   4.40873e+06
         33.3   4.40754e+06   4.40755e+06   4.40755e+06   4.40749e+06   4.40768e+06
         33.4   4.40515e+06   4.40516e+06   4.40517e+06   4.40515e+06   4.40534e+06
         33.5   4.40278e+06   4.40278e+06   4.40279e+06   4.40279e+06   4.40179e+06
         33.6    4.4004e+06   4.40041e+06   4.40042e+06   4.40042e+06   4.40061e+06
         33.7   4.39806e+06   4.39806e+06   4.39805e+06   4.39802e+06   4.39817e+06
         33.8    4.3957e+06   4.39571e+06   4.39567e+06   4.39564e+06   4.39458e+06
         33.9   4.39335e+06   4.39334e+06    4.3933e+06   4.39325e+06   4.39346e+06
           34     4.391e+06   4.39097e+06   4.39094e+06   4.39087e+06   4.39093e+06
         34.1   4.38862e+06    4.3886e+06   4.38857e+06   4.38851e+06   4.38816e+06
         34.2   4.38623e+06   4.38624e+06   4.38619e+06   4.38615e+06    4.3863e+06
         34.3   4.38384e+06   4.38386e+06   4.38382e+06   4.38379e+06   4.38396e+06
         34.4   4.38146e+06   4.38145e+06   4.38145e+06   4.38143e+06   4.38165e+06
         34.5   4.37908e+06   4.37908e+06   4.37908e+06   4.37906e+06   4.37852e+06
         34.6   4.37671e+06   4.37671e+06   4.37671e+06    4.3767e+06    4.3769e+06
         34.7   4.37434e+06   4.37434e+06   4.37433e+06    4.3743e+06   4.37439e+06
         34.8   4.37197e+06   4.37197e+06   4.37196e+06   4.37193e+06   4.37207e+06
         34.9   4.36961e+06    4.3696e+06   4.36958e+06   4.36953e+06   4.36898e+06
           35   4.36725e+06   4.36723e+06    4.3672e+06   4.36714e+06   4.36735e+06
         35.1   4.36488e+06   4.36486e+06   4.36483e+06   4.36476e+06   4.36488e+06
         35.2   4.36249e+06   4.36247e+06   4.36245e+06   4.36241e+06   4.36253e+06
         35.3    4.3601e+06   4.36011e+06   4.36007e+06   4.36004e+06   4.35898e+06