# Probe 0 (1 0 0)
# Probe 1 (10 0 0)
# Probe 2 (20 0 0)
# Probe 3 (30 0 0)
# Probe 4 (40 0 0)
#       Probe             0             1             2             3             4
#        Time
            0    5.2308e+06    5.2308e+06    5.2308e+06    5.2308e+06    5.2308e+06
          0.1   5.23116e+06   5.23116e+06   5.23096e+06    5.2308e+06   5.21304e+06
          0.2    5.2308e+06    5.2308e+06    5.2308e+06    5.2129e+06   5.21488e+06
          0.3   5.23072e+06    5.2308e+06    5.2308e+06   5.21617e+06   5.21473e+06
          0.4   5.23071e+06   5.23072e+06   5.21221e+06   5.21454e+06   5.21398e+06
          0.5    5.2307e+06   5.23068e+06   5.21421e+06    5.2142e+06   5.21609e+06
          0.6   5.23068e+06   5.21437e+06   5.21447e+06   5.21457e+06   5.21345e+06
          0.7   5.22988e+06   5.21383e+06   5.21414e+06   5.21449e+06   5.21387e+06
          0.8   5.19311e+06   5.21147e+06    5.2147e+06   5.21392e+06   5.21589e+06
          0.9   5.19573e+06    5.2086e+06   5.21105e+06   5.21156e+06   5.21519e+06
            1   5.19412e+06   5.19461e+06    5.2101e+06   5.21024e+06    5.2106e+06
          1.1   5.19407e+06   5.19454e+06   5.19422e+06    5.2093e+06   5.21023e+06
          1.2    5.1937e+06   5.19361e+06   5.19292e+06   5.20793e+06   5.20957e+06
          1.3   5.19282e+06   5.19277e+06   5.19355e+06   5.19262e+06   5.20467e+06
          1.4   5.19244e+06   5.19245e+06   5.19225e+06   5.19089e+06    5.2057e+06
          1.5    5.1923e+06   5.19208e+06   5.19157e+06   5.19003e+06   5.17609e+06
          1.6   5.19196e+06   5.19166e+06   5.19066e+06   5.18817e+06   5.17488e+06
          1.7   5.19136e+06   5.19094e+06   5.18956e+06   5.17571e+06   5.17672e+06
          1.8    5.1905e+06    5.1899e+06   5.17473e+06   5.17553e+06   5.17551e+06
          1.9   5.18938e+06   5.18858e+06   5.17529e+06   5.17533e+06   5.17603e+06
            2   5.18763e+06   5.17341e+06   5.17456e+06    5.1746e+06   5.17534e+06
          2.1    5.1842e+06   5.17271e+06   5.17352e+06   5.17387e+06   5.17389e+06
          2.2   5.15663e+06   5.17152e+06   5.17288e+06   5.17313e+06   5.17359e+06
          2.3   5.15712e+06    5.1685e+06   5.17204e+06   5.17258e+06   5.17115e+06
          2.4   5.15726e+06   5.15668e+06   5.17061e+06   5.17211e+06   5.17273e+06
          2.5   5.15615e+06   5.15621e+06   5.15582e+06   5.17124e+06   5.17165e+06
          2.6   5.15582e+06   5.15585e+06   5.15558e+06   5.16793e+06   5.16828e+06
          2.7   5.15557e+06   5.15535e+06   5.15532e+06   5.15473e+06   5.16881e+06
          2.8   5.15503e+06   5.15514e+06   5.15491e+06   5.15359e+06     5.159e+06
          2.9   5.15469e+06   5.15481e+06   5.15418e+06   5.15225e+06    5.1386e+06
            3   5.15449e+06   5.15413e+06   5.15313e+06   5.13839e+06   5.13863e+06
          3.1   5.15412e+06    5.1533e+06    5.1504e+06   5.13834e+06   5.13757e+06
          3.2   5.15295e+06   5.15217e+06   5.13753e+06   5.13881e+06   5.13916e+06
          3.3   5.15136e+06   5.14688e+06   5.13819e+06   5.13809e+06   5.13828e+06
          3.4   5.14823e+06   5.13663e+06   5.13729e+06   5.13769e+06   5.13838e+06
          3.5   5.12532e+06   5.13577e+06   5.13691e+06   5.13728e+06   5.13787e+06
          3.6   5.12138e+06   5.13334e+06   5.13619e+06   5.13685e+06   5.13735e+06
          3.7   5.12121e+06   5.12121e+06   5.13499e+06   5.13623e+06   5.13685e+06
          3.8   5.12095e+06   5.12097e+06   5.12923e+06   5.13527e+06   5.13322e+06
          3.9   5.12061e+06   5.12071e+06   5.12037e+06   5.13313e+06   5.13185e+06
            4   5.12049e+06   5.12019e+06    5.1199e+06   5.11935e+06   5.13285e+06
          4.1   5.11999e+06   5.11973e+06   5.11945e+06   5.11812e+06    5.1246e+06
          4.2   5.11932e+06   5.11941e+06   5.11864e+06   5.11696e+06   5.10322e+06
          4.3    5.1187e+06    5.1187e+06   5.11769e+06   5.10908e+06   5.10385e+06
          4.4   5.11826e+06    5.1175e+06   5.11543e+06   5.10315e+06    5.1036e+06
          4.5   5.11712e+06   5.11604e+06   5.10406e+06   5.10354e+06   5.10404e+06
          4.6   5.11562e+06   5.11046e+06   5.10279e+06   5.10311e+06   5.10348e+06
          4.7   5.11247e+06   5.10152e+06    5.1025e+06   5.10277e+06   5.10306e+06
          4.8   5.09349e+06   5.10084e+06   5.10221e+06    5.1024e+06   5.10298e+06
          4.9   5.08724e+06   5.09779e+06   5.10127e+06   5.10207e+06   5.10031e+06
            5   5.08748e+06   5.08732e+06   5.09992e+06   5.10122e+06   5.10227e+06
          5.1   5.08675e+06    5.0868e+06   5.09216e+06   5.10024e+06   5.10139e+06
          5.2   5.08633e+06   5.08638e+06   5.08603e+06   5.09797e+06   5.09723e+06
          5.3   5.08596e+06   5.08582e+06    5.0858e+06   5.08776e+06   5.09668e+06
          5.4   5.08551e+06   5.08533e+06   5.08502e+06   5.08393e+06   5.08622e+06
          5.5   5.08483e+06   5.08483e+06   5.08407e+06   5.08207e+06    5.0685e+06
          5.6   5.08434e+06   5.08392e+06   5.08287e+06   5.07269e+06   5.06989e+06
          5.7   5.08362e+06    5.0829e+06   5.08014e+06   5.06929e+06    5.0697e+06
          5.8   5.08231e+06   5.08136e+06   5.07001e+06   5.06917e+06   5.06969e+06
          5.9   5.08075e+06   5.07405e+06   5.06886e+06   5.06901e+06   5.06957e+06
            6   5.07657e+06   5.06765e+06    5.0687e+06   5.06879e+06   5.06937e+06
          6.1   5.05815e+06   5.06672e+06   5.06812e+06   5.06859e+06   5.06902e+06
          6.2    5.0539e+06   5.06242e+06   5.06722e+06   5.06814e+06   5.06881e+06
          6.3   5.05394e+06   5.05391e+06   5.06529e+06   5.06733e+06   5.06827e+06
          6.4   5.05365e+06   5.05361e+06   5.05519e+06   5.06607e+06   5.06697e+06
          6.5   5.05318e+06   5.05304e+06   5.05294e+06   5.06261e+06   5.06426e+06
          6.6    5.0526e+06   5.05251e+06   5.05233e+06   5.05122e+06   5.06106e+06
          6.7   5.05197e+06   5.05193e+06   5.05143e+06   5.05044e+06   5.04261e+06
          6.8   5.05138e+06   5.05121e+06   5.05046e+06   5.04769e+06   5.03747e+06
          6.9   5.05063e+06   5.05024e+06   5.04886e+06   5.03725e+06   5.03601e+06
            7   5.04969e+06   5.04902e+06   5.04318e+06   5.03646e+06   5.03426e+06
          7.1    5.0484e+06   5.04685e+06    5.0363e+06   5.03636e+06   5.03697e+06
          7.2   5.04617e+06    5.0353e+06   5.03611e+06   5.03626e+06   5.03664e+06
          7.3   5.03904e+06   5.03483e+06   5.03579e+06   5.03603e+06    5.0365e+06
          7.4    5.0223e+06   5.03309e+06   5.03513e+06   5.03568e+06   5.03519e+06
          7.5   5.02215e+06   5.02163e+06     5.034e+06     5.035e+06   5.03599e+06
          7.6   5.02174e+06   5.02166e+06   5.03148e+06   5.03416e+06   5.03498e+06
          7.7    5.0212e+06   5.02114e+06   5.02097e+06   5.03201e+06   5.03184e+06
          7.8   5.02057e+06   5.02052e+06   5.02045e+06   5.02341e+06   5.03124e+06
          7.9   5.02003e+06   5.02002e+06   5.01956e+06   5.01862e+06   5.02585e+06
            8   5.01941e+06   5.01923e+06   5.01863e+06   5.01701e+06   5.00373e+06
          8.1   5.01871e+06   5.01831e+06   5.01737e+06   5.01164e+06   5.00556e+06
          8.2   5.01768e+06    5.0174e+06   5.01496e+06   5.00446e+06   5.00499e+06
          8.3   5.01663e+06   5.01581e+06   5.00395e+06   5.00452e+06   5.00417e+06
          8.4   5.01515e+06   5.01198e+06   5.00419e+06   5.00457e+06   5.00524e+06
          8.5   5.01155e+06     5.003e+06   5.00381e+06    5.0042e+06   5.00478e+06
          8.6   4.99469e+06   5.00216e+06   5.00343e+06   5.00387e+06   5.00447e+06
          8.7   4.99035e+06   4.99968e+06   5.00277e+06   5.00348e+06    5.0014e+06
          8.8   4.99029e+06   4.99037e+06   5.00098e+06   5.00263e+06    5.0034e+06
          8.9   4.99005e+06    4.9901e+06    4.9927e+06   5.00135e+06   5.00244e+06
            9   4.98962e+06   4.98945e+06   4.98918e+06   4.99823e+06   4.99922e+06
          9.1   4.98887e+06    4.9887e+06   4.98839e+06   4.98778e+06   4.99605e+06
          9.2   4.98817e+06   4.98804e+06   4.98751e+06   4.98646e+06   4.98483e+06
          9.3   4.98727e+06   4.98716e+06   4.98652e+06   4.98367e+06   4.97365e+06
          9.4   4.98644e+06   4.98615e+06    4.9847e+06   4.97377e+06   4.97198e+06
          9.5   4.98544e+06   4.98482e+06    4.9803e+06   4.97343e+06   4.97306e+06
          9.6   4.98428e+06   4.98244e+06   4.97307e+06   4.97338e+06     4.973e+06
          9.7   4.98192e+06   4.97235e+06     4.973e+06   4.97321e+06   4.97346e+06
          9.8   4.97475e+06   4.97178e+06   4.97266e+06   4.97294e+06   4.97351e+06
          9.9   4.95993e+06   4.96979e+06   4.97204e+06   4.97257e+06   4.97298e+06
           10   4.96013e+06   4.96071e+06    4.9707e+06   4.97192e+06   4.97262e+06
         10.1   4.95978e+06   4.95973e+06   4.96762e+06   4.97095e+06   4.97023e+06
         10.2   4.95921e+06   4.95914e+06   4.95894e+06   4.96841e+06   4.97025e+06
         10.3   4.95852e+06   4.95834e+06   4.95817e+06   4.95869e+06   4.96756e+06
         10.4    4.9577e+06   4.95759e+06   4.95725e+06   4.95651e+06   4.96081e+06
         10.5   4.95689e+06   4.95671e+06   4.95619e+06   4.95413e+06   4.94497e+06
         10.6   4.95597e+06    4.9557e+06   4.95464e+06    4.9464e+06   4.94413e+06
         10.7   4.95505e+06   4.95448e+06   4.95163e+06    4.9433e+06   4.94377e+06
         10.8   4.95384e+06   4.95253e+06   4.94297e+06   4.94323e+06   4.94373e+06
         10.9   4.95201e+06   4.94702e+06   4.94269e+06   4.94301e+06   4.94352e+06
           11   4.94696e+06   4.94161e+06    4.9425e+06   4.94272e+06    4.9407e+06
         11.1   4.93023e+06   4.94013e+06   4.94191e+06   4.94232e+06   4.94244e+06
         11.2   4.93012e+06   4.93593e+06   4.94085e+06   4.94173e+06    4.9422e+06
         11.3      4.93e+06   4.92998e+06   4.93823e+06   4.94081e+06   4.94167e+06
         11.4   4.92954e+06   4.92943e+06   4.92903e+06   4.93867e+06   4.94029e+06
         11.5    4.9288e+06   4.92862e+06   4.92836e+06   4.93394e+06   4.93804e+06
         11.6   4.92793e+06   4.92779e+06   4.92749e+06   4.92668e+06   4.93293e+06
         11.7   4.92699e+06    4.9269e+06   4.92639e+06   4.92475e+06   4.91364e+06
         11.8   4.92603e+06   4.92586e+06   4.92501e+06   4.92089e+06   4.91242e+06
         11.9   4.92506e+06   4.92465e+06   4.92226e+06    4.9138e+06   4.91241e+06
           12   4.92388e+06   4.92283e+06   4.91313e+06   4.91353e+06   4.91409e+06
         12.1   4.92218e+06   4.91902e+06   4.91307e+06   4.91345e+06   4.91399e+06
         12.2   4.91813e+06     4.912e+06   4.91288e+06   4.91309e+06   4.91368e+06
         12.3   4.90296e+06   4.91079e+06   4.91232e+06   4.91271e+06   4.91291e+06
         12.4   4.90105e+06   4.90759e+06   4.91134e+06   4.91206e+06   4.91257e+06
         12.5   4.90087e+06   4.90074e+06   4.90891e+06   4.91114e+06   4.90985e+06
         12.6   4.90036e+06   4.90026e+06   4.90013e+06   4.90925e+06   4.91056e+06
         12.7   4.89955e+06   4.89938e+06   4.89917e+06   4.90497e+06   4.90846e+06
         12.8   4.89866e+06   4.89853e+06   4.89821e+06   4.89737e+06   4.90366e+06
         12.9   4.89766e+06   4.89758e+06    4.8971e+06    4.8956e+06   4.88635e+06
           13   4.89665e+06   4.89647e+06   4.89568e+06   4.89197e+06   4.88574e+06
         13.1   4.89557e+06   4.89524e+06    4.8931e+06    4.8849e+06   4.88539e+06
         13.2   4.89433e+06   4.89338e+06   4.88462e+06   4.88457e+06   4.88468e+06
         13.3   4.89267e+06   4.89002e+06   4.88407e+06   4.88439e+06   4.88436e+06
         13.4    4.8886e+06   4.88294e+06   4.88374e+06   4.88401e+06   4.88449e+06
         13.5   4.87558e+06   4.88166e+06   4.88318e+06   4.88355e+06    4.8819e+06
         13.6    4.8724e+06   4.87869e+06   4.88208e+06   4.88288e+06   4.88352e+06
         13.7   4.87213e+06   4.87204e+06   4.87977e+06   4.88188e+06   4.88256e+06
         13.8   4.87169e+06   4.87152e+06   4.87223e+06   4.87986e+06   4.88135e+06
         13.9   4.87076e+06   4.87066e+06   4.87032e+06   4.87585e+06   4.87914e+06
           14   4.86981e+06   4.86968e+06   4.86934e+06   4.86861e+06   4.87378e+06
         14.1   4.86871e+06   4.86863e+06    4.8682e+06   4.86662e+06   4.85885e+06
         14.2   4.86766e+06   4.86745e+06   4.86671e+06     4.863e+06   4.85747e+06
         14.3   4.86647e+06   4.86618e+06    4.8639e+06   4.85652e+06   4.85699e+06
         14.4   4.86519e+06   4.86422e+06    4.8569e+06   4.85605e+06   4.85647e+06
         14.5   4.86342e+06   4.86059e+06   4.85551e+06    4.8558e+06   4.85629e+06
         14.6   4.85917e+06   4.85434e+06   4.85508e+06   4.85534e+06   4.85588e+06
         14.7   4.84652e+06   4.85285e+06   4.85439e+06   4.85478e+06   4.85526e+06
         14.8   4.84415e+06   4.84962e+06   4.85324e+06     4.854e+06   4.85471e+06
         14.9    4.8439e+06   4.84377e+06   4.85052e+06   4.85293e+06   4.85163e+06
           15   4.84332e+06   4.84313e+06   4.84296e+06   4.85078e+06   4.85211e+06
         15.1   4.84229e+06   4.84219e+06   4.84183e+06   4.84621e+06   4.84958e+06
         15.2    4.8412e+06   4.84112e+06   4.84079e+06   4.84003e+06    4.8435e+06
         15.3   4.84009e+06   4.84002e+06   4.83957e+06   4.83789e+06   4.82963e+06
         15.4   4.83892e+06   4.83873e+06   4.83785e+06   4.83377e+06   4.82956e+06
         15.5   4.83766e+06   4.83729e+06   4.83489e+06   4.82848e+06   4.82898e+06
         15.6   4.83634e+06   4.83518e+06   4.82773e+06   4.82796e+06   4.82771e+06
         15.7   4.83422e+06   4.83075e+06   4.82728e+06   4.82758e+06   4.82805e+06
         15.8   4.82939e+06     4.826e+06   4.82672e+06   4.82699e+06   4.82737e+06
         15.9   4.81719e+06   4.82425e+06   4.82594e+06   4.82631e+06   4.82637e+06
           16   4.81638e+06   4.81977e+06   4.82444e+06   4.82538e+06     4.826e+06
         16.1   4.81599e+06   4.81582e+06   4.82153e+06   4.82409e+06   4.82409e+06
         16.2   4.81513e+06     4.815e+06    4.8147e+06   4.82148e+06   4.82135e+06
         16.3   4.81399e+06   4.81396e+06   4.81363e+06    4.8156e+06   4.81959e+06
         16.4   4.81285e+06   4.81278e+06   4.81248e+06   4.81159e+06   4.81403e+06
         16.5   4.81162e+06   4.81154e+06   4.81108e+06   4.80908e+06   4.80231e+06
         16.6   4.81037e+06   4.81019e+06    4.8091e+06   4.80327e+06   4.80175e+06
         16.7   4.80902e+06   4.80858e+06    4.8057e+06   4.80064e+06    4.8012e+06
         16.8   4.80762e+06   4.80602e+06   4.79995e+06   4.80011e+06   4.80057e+06
         16.9   4.80491e+06   4.79982e+06   4.79933e+06   4.79957e+06   4.79907e+06
           17   4.79883e+06   4.79773e+06   4.79861e+06   4.79886e+06   4.79932e+06
         17.1   4.78935e+06   4.79542e+06   4.79757e+06     4.798e+06   4.79853e+06
         17.2   4.78881e+06   4.78927e+06   4.79572e+06   4.79693e+06   4.79752e+06
         17.3    4.7882e+06   4.78806e+06   4.79184e+06   4.79529e+06   4.79491e+06
         17.4   4.78708e+06     4.787e+06   4.78677e+06   4.79204e+06   4.79276e+06
         17.5   4.78586e+06   4.78582e+06   4.78555e+06   4.78504e+06   4.79065e+06
         17.6   4.78461e+06   4.78455e+06   4.78424e+06   4.78316e+06   4.78202e+06
         17.7   4.78332e+06   4.78318e+06   4.78265e+06   4.78012e+06    4.7752e+06
         17.8   4.78196e+06   4.78174e+06   4.78024e+06   4.77398e+06   4.77422e+06
         17.9   4.78052e+06   4.77982e+06   4.77539e+06   4.77301e+06   4.77167e+06
           18    4.7788e+06   4.77674e+06   4.77224e+06    4.7724e+06   4.77284e+06
         18.1   4.77515e+06   4.77109e+06   4.77149e+06   4.77169e+06   4.77213e+06
         18.2   4.76579e+06    4.7694e+06   4.77057e+06   4.77082e+06   4.77056e+06
         18.3     4.762e+06    4.7664e+06   4.76921e+06   4.76981e+06   4.76815e+06
         18.4   4.76132e+06   4.76133e+06   4.76672e+06   4.76852e+06   4.76913e+06
         18.5   4.76041e+06   4.76028e+06   4.76079e+06   4.76631e+06   4.76751e+06
         18.6   4.75911e+06   4.75907e+06   4.75884e+06   4.76209e+06   4.76381e+06
         18.7   4.75781e+06   4.75775e+06    4.7575e+06   4.75693e+06   4.76006e+06
         18.8   4.75647e+06   4.75638e+06   4.75605e+06   4.75454e+06   4.74875e+06
         18.9   4.75508e+06   4.75492e+06   4.75409e+06   4.75032e+06   4.74766e+06
           19   4.75363e+06   4.75328e+06     4.751e+06   4.74641e+06   4.74517e+06
         19.1   4.75208e+06   4.75094e+06   4.74555e+06   4.74552e+06   4.74597e+06
         19.2   4.74959e+06   4.74622e+06   4.74459e+06   4.74477e+06   4.74518e+06
         19.3   4.74435e+06   4.74302e+06   4.74368e+06   4.74386e+06    4.7443e+06
         19.4   4.73571e+06   4.74077e+06   4.74249e+06   4.74285e+06   4.74329e+06
         19.5   4.73467e+06   4.73587e+06   4.74063e+06   4.74163e+06   4.74216e+06
         19.6   4.73381e+06   4.73372e+06   4.73702e+06   4.73993e+06   4.74069e+06
         19.7   4.73255e+06   4.73247e+06   4.73242e+06   4.73686e+06   4.73867e+06
         19.8   4.73117e+06   4.73114e+06   4.73092e+06   4.73096e+06   4.73501e+06
         19.9   4.72977e+06   4.72971e+06   4.72948e+06   4.72853e+06   4.72746e+06
           20   4.72834e+06   4.72823e+06   4.72773e+06   4.72549e+06   4.72011e+06
         20.1   4.72685e+06   4.72665e+06   4.72525e+06   4.72024e+06   4.71853e+06
         20.2   4.72531e+06   4.72462e+06   4.72076e+06   4.71891e+06   4.71937e+06
         20.3   4.72337e+06   4.72139e+06   4.71797e+06   4.71805e+06   4.71846e+06
         20.4   4.71964e+06   4.71667e+06   4.71694e+06    4.7171e+06   4.71749e+06
         20.5   4.71146e+06   4.71472e+06   4.71582e+06   4.71604e+06   4.71646e+06
         20.6   4.70829e+06   4.71135e+06    4.7142e+06   4.71483e+06   4.71531e+06
         20.7   4.70731e+06   4.70738e+06    4.7115e+06   4.71333e+06   4.71391e+06
         20.8   4.70612e+06   4.70603e+06   4.70642e+06   4.71089e+06   4.71213e+06
         20.9   4.70467e+06   4.70465e+06   4.70447e+06   4.70631e+06   4.70842e+06
           21   4.70322e+06   4.70317e+06   4.70298e+06    4.7024e+06   4.70378e+06
         21.1   4.70174e+06   4.70166e+06    4.7013e+06   4.69975e+06   4.69576e+06
         21.2   4.70022e+06   4.70004e+06   4.69912e+06   4.69515e+06    4.6941e+06
         21.3   4.69862e+06   4.69818e+06   4.69561e+06   4.69259e+06   4.69292e+06
         21.4   4.69685e+06   4.69552e+06   4.69165e+06    4.6915e+06    4.6919e+06
         21.5   4.69385e+06   4.69085e+06   4.69038e+06   4.69051e+06   4.69085e+06
         21.6   4.68767e+06   4.68847e+06   4.68923e+06   4.68939e+06    4.6898e+06
         21.7   4.68226e+06   4.68575e+06   4.68773e+06   4.68814e+06   4.68858e+06
         21.8   4.68096e+06   4.68137e+06    4.6854e+06   4.68668e+06   4.68721e+06
         21.9   4.67979e+06   4.67971e+06   4.68111e+06   4.68454e+06   4.68549e+06
           22   4.67829e+06   4.67826e+06   4.67819e+06   4.68085e+06   4.68297e+06
         22.1   4.67676e+06   4.67674e+06   4.67657e+06   4.67631e+06   4.67861e+06
         22.2   4.67523e+06   4.67517e+06    4.6749e+06   4.67373e+06   4.67049e+06
         22.3   4.67364e+06   4.67352e+06   4.67284e+06   4.66994e+06   4.66796e+06
         22.4   4.67201e+06   4.67171e+06   4.66982e+06   4.66648e+06   4.66669e+06
         22.5   4.67025e+06   4.66927e+06   4.66563e+06   4.66514e+06   4.66556e+06
         22.6   4.66765e+06   4.66524e+06   4.66396e+06   4.66404e+06   4.66441e+06
         22.7   4.66261e+06   4.66222e+06   4.66271e+06   4.66286e+06   4.66323e+06
         22.8   4.65654e+06   4.65974e+06   4.66123e+06   4.66156e+06   4.66198e+06
         22.9   4.65475e+06   4.65571e+06   4.65912e+06   4.66008e+06   4.66016e+06
           23   4.65349e+06   4.65347e+06   4.65548e+06   4.65807e+06   4.65793e+06
         23.1   4.65199e+06   4.65194e+06   4.65201e+06   4.65484e+06   4.65657e+06
         23.2    4.6504e+06   4.65038e+06   4.65023e+06   4.65035e+06   4.65279e+06
         23.3    4.6488e+06   4.64874e+06   4.64854e+06   4.64761e+06   4.64579e+06
         23.4   4.64716e+06   4.64704e+06   4.64648e+06   4.64421e+06   4.64207e+06
         23.5   4.64549e+06   4.64522e+06   4.64373e+06   4.64052e+06   4.64052e+06
         23.6   4.64369e+06    4.6429e+06    4.6398e+06   4.63891e+06   4.63927e+06
         23.7   4.64124e+06   4.63928e+06   4.63768e+06    4.6377e+06   4.63806e+06
         23.8    4.6368e+06   4.63603e+06   4.63632e+06   4.63643e+06   4.63679e+06
         23.9   4.63095e+06   4.63353e+06    4.6348e+06   4.63506e+06   4.63503e+06
           24   4.62866e+06    4.6299e+06   4.63275e+06   4.63354e+06   4.63243e+06
         24.1   4.62729e+06   4.62733e+06    4.6294e+06   4.63158e+06   4.63218e+06
         24.2   4.62573e+06    4.6257e+06   4.62588e+06   4.62855e+06   4.63005e+06
         24.3   4.62408e+06   4.62406e+06   4.62395e+06   4.62437e+06   4.62645e+06
         24.4   4.62242e+06   4.62237e+06   4.62216e+06   4.62139e+06   4.62032e+06
         24.5   4.62074e+06   4.62064e+06   4.62014e+06   4.61817e+06   4.61622e+06
         24.6   4.61899e+06   4.61875e+06   4.61742e+06   4.61459e+06   4.61372e+06
         24.7   4.61716e+06   4.61644e+06   4.61377e+06   4.61275e+06   4.61135e+06
         24.8   4.61473e+06   4.61307e+06   4.61146e+06   4.61142e+06   4.61051e+06
         24.9   4.61054e+06    4.6098e+06   4.60999e+06   4.61007e+06   4.61014e+06
           25    4.6052e+06   4.60726e+06   4.60839e+06   4.60863e+06   4.60895e+06
         25.1   4.60264e+06   4.60386e+06   4.60628e+06   4.60703e+06   4.60746e+06
         25.2   4.60111e+06   4.60123e+06    4.6031e+06   4.60503e+06   4.60571e+06
         25.3    4.5995e+06   4.59948e+06   4.59975e+06   4.60205e+06   4.60337e+06
         25.4   4.59779e+06   4.59777e+06   4.59767e+06   4.59814e+06   4.59857e+06
         25.5   4.59607e+06   4.59603e+06   4.59583e+06   4.59513e+06   4.59452e+06
         25.6   4.59431e+06   4.59423e+06   4.59375e+06   4.59193e+06   4.59027e+06
         25.7   4.59254e+06    4.5923e+06   4.59102e+06   4.58858e+06   4.58842e+06
         25.8   4.59062e+06   4.58992e+06   4.58762e+06   4.58666e+06   4.58677e+06
         25.9    4.5881e+06   4.58665e+06    4.5853e+06   4.58521e+06   4.58394e+06
           26   4.58398e+06   4.58354e+06   4.58369e+06   4.58377e+06   4.58342e+06
         26.1   4.57924e+06   4.58089e+06   4.58201e+06   4.58225e+06   4.58249e+06
         26.2   4.57662e+06   4.57765e+06   4.57981e+06   4.58058e+06   4.58093e+06
         26.3   4.57498e+06   4.57512e+06   4.57667e+06   4.57847e+06   4.57917e+06
         26.4   4.57329e+06   4.57327e+06   4.57356e+06   4.57542e+06   4.57591e+06
         26.5   4.57152e+06   4.57151e+06   4.57142e+06   4.57183e+06   4.57185e+06
         26.6   4.56974e+06    4.5697e+06    4.5695e+06   4.56878e+06   4.56812e+06
         26.7   4.56795e+06   4.56784e+06   4.56731e+06   4.56561e+06   4.56435e+06
         26.8   4.56608e+06   4.56583e+06   4.56451e+06   4.56253e+06   4.56242e+06
         26.9   4.56408e+06   4.56335e+06   4.56138e+06   4.56057e+06    4.5608e+06
           27   4.56135e+06   4.56021e+06   4.55913e+06   4.55902e+06   4.55929e+06
         27.1   4.55729e+06   4.55721e+06   4.55742e+06   4.55749e+06   4.55735e+06
         27.2   4.55309e+06   4.55443e+06   4.55559e+06   4.55588e+06   4.55466e+06
         27.3   4.55061e+06   4.55139e+06   4.55323e+06   4.55407e+06   4.55316e+06
         27.4   4.54884e+06   4.54898e+06   4.55019e+06   4.55182e+06    4.5525e+06
         27.5   4.54707e+06   4.54706e+06   4.54733e+06   4.54873e+06   4.54993e+06
         27.6   4.54526e+06   4.54523e+06   4.54516e+06   4.54539e+06   4.54616e+06
         27.7   4.54341e+06   4.54337e+06   4.54314e+06   4.54235e+06   4.54038e+06
         27.8   4.54155e+06   4.54143e+06   4.54081e+06   4.53918e+06   4.53817e+06
         27.9   4.53963e+06   4.53928e+06   4.53797e+06   4.53645e+06   4.53629e+06
           28   4.53744e+06   4.53668e+06   4.53515e+06   4.53449e+06   4.53463e+06
         28.1   4.53447e+06   4.53367e+06   4.53296e+06   4.53286e+06    4.5331e+06
         28.2   4.53052e+06   4.53082e+06   4.53113e+06   4.53124e+06   4.53128e+06
         28.3   4.52698e+06   4.52794e+06   4.52912e+06   4.52951e+06   4.52839e+06
         28.4   4.52458e+06   4.52514e+06   4.52658e+06   4.52754e+06   4.52677e+06
         28.5   4.52267e+06   4.52282e+06    4.5237e+06   4.52506e+06   4.52575e+06
         28.6   4.52083e+06   4.52085e+06   4.52107e+06   4.52197e+06   4.52285e+06
         28.7   4.51896e+06   4.51895e+06   4.51886e+06   4.51884e+06    4.5191e+06
         28.8   4.51708e+06     4.517e+06   4.51666e+06   4.51578e+06   4.51534e+06
         28.9   4.51515e+06   4.51495e+06   4.51419e+06   4.51289e+06   4.51249e+06
           29   4.51306e+06   4.51263e+06   4.51146e+06   4.51048e+06   4.51034e+06
         29.1    4.5105e+06   4.50991e+06   4.50899e+06   4.50855e+06   4.50863e+06
         29.2    4.5072e+06   4.50707e+06   4.50692e+06   4.50685e+06   4.50533e+06
         29.3   4.50376e+06   4.50424e+06   4.50487e+06   4.50516e+06   4.50543e+06
         29.4   4.50128e+06   4.50154e+06   4.50233e+06   4.50305e+06   4.50215e+06
         29.5   4.49907e+06   4.49923e+06   4.49969e+06   4.50037e+06   4.50088e+06
         29.6   4.49691e+06   4.49704e+06   4.49728e+06   4.49749e+06   4.49788e+06
         29.7   4.49484e+06   4.49488e+06   4.49486e+06   4.49464e+06   4.49481e+06
         29.8   4.49275e+06   4.49263e+06   4.49231e+06   4.49202e+06   4.49178e+06
         29.9   4.49044e+06   4.49026e+06    4.4899e+06    4.4896e+06   4.48962e+06
           30   4.48789e+06   4.48782e+06    4.4876e+06   4.48733e+06    4.4874e+06
         30.1   4.48532e+06   4.48531e+06   4.48526e+06   4.48513e+06   4.48383e+06
         30.2   4.48278e+06   4.48281e+06   4.48284e+06   4.48288e+06   4.48315e+06
         30.3    4.4803e+06   4.48034e+06   4.48046e+06   4.48056e+06    4.4809e+06
         30.4   4.47785e+06   4.47792e+06   4.47806e+06   4.47816e+06   4.47828e+06
         30.5   4.47551e+06   4.47555e+06   4.47565e+06   4.47571e+06   4.47583e+06
         30.6   4.47318e+06    4.4732e+06    4.4732e+06   4.47317e+06   4.47257e+06
         30.7   4.47087e+06   4.47086e+06   4.47078e+06    4.4707e+06   4.47091e+06
         30.8   4.46852e+06   4.46847e+06   4.46836e+06   4.46825e+06   4.46834e+06
         30.9   4.46611e+06   4.46608e+06   4.46596e+06   4.46584e+06    4.4659e+06
           31   4.46369e+06   4.46366e+06   4.46356e+06   4.46345e+06   4.46368e+06
         31.1   4.46122e+06    4.4612e+06   4.46116e+06   4.46109e+06   4.46122e+06
         31.2   4.45875e+06   4.45874e+06   4.45876e+06   4.45874e+06   4.45784e+06
         31.3    4.4563e+06   4.45631e+06   4.45634e+06   4.45635e+06   4.45667e+06
         31.4   4.45388e+06   4.45389e+06   4.45394e+06   4.45396e+06   4.45417e+06
         31.5   4.45147e+06   4.45149e+06   4.45152e+06   4.45154e+06   4.45089e+06
         31.6   4.44908e+06    4.4491e+06   4.44911e+06   4.44908e+06   4.44927e+06
         31.7   4.44672e+06    4.4467e+06   4.44668e+06   4.44663e+06   4.44565e+06
         31.8   4.44433e+06   4.44431e+06   4.44426e+06    4.4442e+06   4.44432e+06
         31.9   4.44193e+06    4.4419e+06   4.44184e+06   4.44176e+06   4.44128e+06
           32   4.43951e+06   4.43949e+06   4.43944e+06   4.43935e+06   4.43953e+06
         32.1   4.43709e+06   4.43707e+06   4.43702e+06   4.43698e+06   4.43703e+06
         32.2   4.43464e+06   4.43464e+06   4.43461e+06   4.43458e+06   4.43476e+06
         32.3    4.4322e+06    4.4322e+06    4.4322e+06   4.43218e+06   4.43233e+06
         32.4   4.42977e+06   4.42978e+06   4.42978e+06   4.42978e+06   4.42866e+06
         32.5   4.42737e+06   4.42735e+06   4.42737e+06   4.42736e+06   4.42749e+06
         32.6   4.42496e+06   4.42495e+06   4.42495e+06   4.42493e+06   4.42432e+06
         32.7   4.42256e+06   4.42254e+06   4.42253e+06   4.42249e+06   4.42269e+06
         32.8   4.42015e+06   4.42014e+06    4.4201e+06   4.42006e+06   4.42018e+06
         32.9   4.41775e+06   4.41773e+06   4.41769e+06   4.41763e+06   4.41656e+06
           33   4.41533e+06    4.4153e+06   4.41527e+06    4.4152e+06   4.41538e+06
         33.1   4.41289e+06    4.4129e+06   4.41286e+06    4.4128e+06     4.413e+06
         33.2   4.41048e+06   4.41047e+06   4.41043e+06   4.41039e+06   4.40954e+06
         33.3   4.40804e+06   4.40802e+06   4.40802e+06   4.40798e+06   4.40811e+06
         33.4   4.40561e+06   4.40561e+06   4.40561e+06   4.40557e+06   4.40547e+06
         33.5   4.40319e+06   4.40318e+06   4.40318e+06   4.40316e+06   4.40333e+06
         33.6   4.40076e+06   4.40076e+06   4.40076e+06   4.40073e+06   4.40084e+06
         33.7   4.39835e+06   4.39834e+06   4.39833e+06    4.3983e+06   4.39832e+06
         33.8   4.39594e+06   4.39594e+06   4.39592e+06   4.39586e+06   4.39603e+06
         33.9   4.39352e+06   4.39351e+06    4.3935e+06   4.39345e+06   4.39357e+06
           34   4.39112e+06   4.39109e+06   4.39106e+06   4.39102e+06   4.39123e+06
         34.1   4.38868e+06   4.38867e+06   4.38865e+06   4.38859e+06   4.38757e+06
         34.2   4.38625e+06   4.38624e+06   4.38623e+06   4.38618e+06   4.38639e+06
         34.3   4.38382e+06   4.38382e+06   4.38379e+06   4.38377e+06   4.38386e+06
         34.4    4.3814e+06   4.38139e+06   4.38139e+06   4.38135e+06   4.38137e+06
         34.5   4.37896e+06   4.37896e+06   4.37896e+06   4.37893e+06   4.37905e+06
         34.6   4.37654e+06   4.37654e+06   4.37653e+06    4.3765e+06   4.37669e+06
         34.7   4.37412e+06   4.37411e+06    4.3741e+06   4.37406e+06   4.37432e+06
         34.8   4.37171e+06    4.3717e+06   4.37167e+06   4.37163e+06   4.37054e+06
         34.9   4.36928e+06   4.36927e+06   4.36924e+06   4.36921e+06   4.36939e+06
           35   4.36685e+06   4.36684e+06   4.36683e+06   4.36678e+06   4.36691e+06
         35.1   4.36443e+06   4.36442e+06   4.36439e+06   4.36435e+06   4.36454e+06
         35.2     4.362e+06   4.36199e+06   4.36196e+06   4.36193e+06   4.36116e+06
         35.3   4.35958e+06   4.35957e+06   4.35955e+06    4.3595e+06   4.35968e+06