# Probe 0 (1 0 0)
# Probe 1 (10 0 0)
# Probe 2 (20 0 0)
# Probe 3 (30 0 0)
# Probe 4 (40 0 0)
#       Probe             0             1             2             3             4
#        Time
            0        289.43        289.43        289.43        289.43       289.208
          0.1       289.435       289.435       289.432        289.43       289.118
          0.2        289.43        289.43        289.43       289.159        289.14
          0.3       289.429        289.43        289.43       289.207       289.135
          0.4       289.429       289.429        289.15       289.184       289.121
          0.5       289.428       289.428       289.183       289.184       289.155
          0.6       289.428       289.183       289.192       289.194       289.119
          0.7       289.416       289.179       289.192       289.197       289.128
          0.8       288.918        289.15       289.204       289.194       289.161
          0.9       288.966       289.111       289.156       289.163       289.155
            1       288.952       288.951       289.147       289.149       289.092
          1.1       288.958       288.958       288.935       289.139       289.091
          1.2       288.953       288.945       288.917       289.119       289.081
          1.3       288.941       288.933       288.927       288.918        289.01
          1.4       288.936       288.929       288.908       288.893       289.028
          1.5       288.935       288.924       288.899       288.884       288.823
          1.6       288.931       288.919       288.889        288.87       288.802
          1.7       288.924       288.911        288.88       288.791       288.828
          1.8       288.915       288.899       288.773       288.792       288.811
          1.9       288.909        288.89       288.794       288.802       288.829
            2       288.894       288.757       288.796       288.803       288.829
          2.1       288.853        288.76       288.794       288.805       288.818
          2.2       288.638       288.755       288.798       288.806       288.825
          2.3       288.662       288.722       288.798       288.811       288.799
          2.4       288.679       288.633       288.788       288.815       288.834
          2.5       288.673       288.637       288.611        288.81       288.827
          2.6       288.669       288.633       288.609       288.762       288.776
          2.7       288.667       288.627       288.606       288.611       288.785
          2.8        288.66       288.626       288.602       288.596       288.642
          2.9       288.657       288.623       288.597       288.582       288.525
            3       288.658       288.616       288.589       288.474       288.525
          3.1       288.657       288.609       288.567        288.48       288.511
          3.2       288.651       288.605       288.474       288.503       288.547
          3.3       288.644       288.544       288.504       288.513       288.552
          3.4       288.614       288.468       288.511       288.527       288.571
          3.5       288.365       288.476       288.525        288.54        288.58
          3.6       288.359       288.458       288.533       288.552       288.589
          3.7       288.379       288.336       288.533        288.56       288.597
          3.8       288.393       288.351       288.462        288.56       288.557
          3.9       288.393       288.352       288.333       288.531       288.538
            4       288.394       288.347       288.329       288.326       288.553
          4.1        288.39       288.344       288.326       288.311        288.43
          4.2       288.384       288.343       288.318       288.298       288.213
          4.3        288.38       288.338       288.309       288.237       288.227
          4.4        288.38       288.327       288.285       288.195        288.23
          4.5       288.378       288.322       288.196       288.219       288.254
          4.6       288.379       288.263        288.21        288.24       288.272
          4.7       288.355        288.18       288.233       288.261       288.291
          4.8       288.121       288.198       288.255       288.281       288.315
          4.9       288.085       288.179       288.267       288.301         288.3
            5       288.117       288.065        288.27       288.311       288.351
          5.1        288.13       288.082       288.173       288.316       288.356
          5.2       288.132       288.084       288.087       288.287       288.299
          5.3       288.131       288.081       288.088       288.135       288.294
          5.4       288.129       288.079       288.082       288.082       288.138
          5.5       288.125       288.078       288.074        288.06       287.928
          5.6       288.125       288.072       288.064       287.939       287.956
          5.7       288.125       288.067       288.033       287.919       287.964
          5.8       288.128       288.068       287.919       287.944        287.99
          5.9       288.134       287.989       287.939       287.977       288.021
            6       288.101       287.928       287.971       288.008       288.051
          6.1       287.852       287.949       287.996       288.038       288.077
          6.2       287.825       287.918       288.014       288.062       288.103
          6.3       287.861       287.822       288.014       288.079       288.122
          6.4       287.881       287.843       287.881        288.08       288.121
          6.5       287.882       287.842       287.854       288.033       288.084
          6.6        287.88       287.842       287.852       287.863        288.04
          6.7       287.879       287.841       287.847       287.859       287.761
          6.8       287.879        287.84       287.841       287.827       287.691
          6.9       287.879       287.837       287.828       287.679        287.68
            7       287.881       287.835       287.759       287.686       287.673
          7.1       287.897       287.838       287.694       287.726       287.754
          7.2       287.899         287.7       287.734       287.766        287.79
          7.3       287.825       287.735       287.769       287.803       287.827
          7.4       287.608       287.749       287.798       287.835       287.844
          7.5       287.648        287.61       287.818       287.861       287.892
          7.6        287.68       287.649       287.812       287.881       287.908
          7.7       287.691        287.66       287.665       287.863       287.877
          7.8        287.69        287.66       287.666       287.733       287.872
          7.9       287.692       287.662       287.662        287.67       287.796
            8       287.693        287.66       287.659       287.656        287.46
          8.1       287.694       287.659       287.652       287.585       287.503
          8.2       287.694       287.661       287.631       287.491       287.512
          8.3       287.706       287.665       287.489       287.524       287.533
          8.4       287.726        287.65       287.542       287.574       287.596
          8.5       287.712       287.555       287.584       287.615       287.636
          8.6       287.489       287.589       287.624       287.655       287.675
          8.7       287.469       287.594       287.656       287.691        287.67
          8.8       287.513        287.49       287.668       287.716       287.739
          8.9       287.546       287.522       287.568       287.727       287.755
            9       287.552       287.525       287.525       287.688       287.714
          9.1       287.551       287.525       287.524       287.531       287.674
          9.2       287.553       287.527       287.523       287.523       287.507
          9.3       287.552       287.527       287.521       287.493       287.342
          9.4       287.556       287.528       287.509       287.353       287.336
          9.5       287.564       287.531       287.463       287.374       287.378
          9.6        287.59       287.538       287.398       287.424       287.427
          9.7       287.598       287.425       287.449       287.473       287.485
          9.8       287.528       287.467       287.493       287.518       287.535
          9.9        287.34       287.484       287.531       287.559       287.574
           10       287.394       287.384       287.554       287.592       287.612
         10.1       287.433       287.412       287.544       287.615       287.612
         10.2       287.445       287.424       287.423       287.593        287.63
         10.3       287.448       287.425       287.424       287.446       287.598
         10.4       287.449       287.428       287.424       287.425       287.502
         10.5       287.452        287.43       287.423       287.402       287.258
         10.6       287.455       287.431       287.416       287.295       287.265
         10.7       287.463       287.435       287.391       287.271       287.286
         10.8       287.484       287.445       287.294       287.316       287.331
         10.9       287.504       287.406       287.346       287.368       287.383
           11        287.47       287.371       287.396       287.416       287.392
         11.1       287.246       287.398       287.437        287.46       287.468
         11.2       287.298       287.379       287.468       287.498       287.511
         11.3       287.345       287.328       287.468       287.526       287.545
         11.4       287.369        287.35       287.344       287.518       287.549
         11.5       287.372       287.353       287.348       287.453       287.526
         11.6       287.374       287.355       287.351       287.347       287.456
         11.7       287.376       287.358        287.35       287.333       287.152
         11.8        287.38       287.361       287.347       287.289       287.154
         11.9       287.388       287.365       287.326       287.198       287.182
           12       287.406       287.373       287.214       287.236        287.25
         12.1        287.43       287.363       287.272       287.293       287.307
         12.2       287.413       287.301       287.325       287.343       287.357
         12.3       287.211       287.335       287.369       287.389       287.397
         12.4       287.234       287.333       287.403       287.428       287.441
         12.5       287.283       287.267       287.408       287.458       287.443
         12.6       287.312       287.296       287.293       287.459       287.485
         12.7       287.315       287.298       287.294       287.401       287.464
         12.8       287.318       287.302       287.296       287.289         287.4
         12.9       287.321       287.306       287.297       287.279       287.125
           13       287.325       287.308       287.294        287.24       287.137
         13.1       287.333       287.314       287.277       287.147        287.16
         13.2       287.349        287.32       287.172       287.184       287.191
         13.3       287.375       287.317       287.223       287.241       287.244
         13.4       287.358       287.253       287.275       287.291       287.303
         13.5       287.187       287.286        287.32       287.338       287.316
         13.6        287.19       287.288       287.352       287.377       287.392
         13.7       287.238       287.224        287.36       287.407       287.422
         13.8        287.27       287.255       287.265       287.407       287.436
         13.9       287.273       287.259       287.251       287.355       287.415
           14       287.276       287.262       287.255       287.248       287.342
         14.1       287.279       287.266       287.257       287.236       287.104
         14.2       287.284       287.269       287.255       287.197       287.103
         14.3       287.291       287.275       287.234       287.115       287.126
         14.4       287.309       287.281       287.155       287.151       287.161
         14.5       287.333       287.274       287.191       287.207       287.218
         14.6       287.312       287.221       287.241       287.257       287.269
         14.7       287.146       287.251       287.285       287.302       287.313
         14.8       287.162       287.248       287.316        287.34       287.354
         14.9       287.209       287.196       287.316       287.368       287.351
           15       287.237       287.222       287.217       287.364       287.389
         15.1       287.239       287.227       287.219       287.303       287.364
         15.2       287.242        287.23       287.223       287.215       287.279
         15.3       287.246       287.234       287.225       287.201       287.058
         15.4       287.251       287.237        287.22       287.155       287.081
         15.5        287.26       287.243       287.199       287.095       287.105
         15.6       287.281        287.25       287.119       287.135       287.133
         15.7       287.298       287.228       287.172       287.188       287.197
         15.8       287.265         287.2       287.219       287.235       287.243
         15.9       287.104       287.225        287.26       287.277       287.281
           16       287.146       287.198       287.285       287.312       287.323
         16.1        287.19       287.177       287.279       287.334       287.336
         16.2       287.208       287.196       287.188       287.317       287.319
         16.3       287.211         287.2       287.192       287.232       287.306
         16.4       287.214       287.203       287.196       287.185       287.231
         16.5       287.218       287.207       287.197       287.166       287.045
         16.6       287.223       287.211        287.19       287.091       287.064
         16.7       287.233       287.216       287.163       287.081       287.092
         16.8       287.258        287.22       287.113       287.126       287.135
         16.9       287.263       287.164       287.161       287.175       287.168
           17       287.206       287.183       287.205       287.218       287.228
         17.1       287.092       287.196        287.24       287.256       287.267
         17.2       287.138       287.137       287.257       287.287       287.298
         17.3       287.174       287.162        287.23         287.3       287.296
         17.4       287.182       287.172       287.166       287.267       287.282
         17.5       287.185       287.175       287.169       287.163       287.266
         17.6       287.188       287.179       287.172       287.155       287.137
         17.7       287.193       287.181       287.171       287.128       287.038
         17.8       287.199       287.186       287.158       287.049       287.054
         17.9       287.212       287.191        287.11       287.074       287.055
           18       287.234       287.189       287.111       287.122        287.13
         18.1        287.22       287.141       287.155       287.166       287.175
         18.2       287.103       287.166       287.193       287.206       287.202
         18.3        287.09       287.164       287.221       287.239       287.214
         18.4        287.13       287.122       287.223       287.263       287.275
         18.5       287.154       287.143       287.152        287.26       287.282
         18.6       287.157       287.148       287.143       287.206       287.242
         18.7        287.16       287.151       287.146       287.138       287.196
         18.8       287.163       287.154       287.147       287.122       287.016
         18.9       287.168       287.157       287.141       287.075       287.025
           19       287.176       287.162        287.12       287.041       287.021
         19.1       287.194       287.166       287.068       287.076       287.084
         19.2       287.202       287.133       287.109        287.12       287.127
         19.3       287.158        287.13       287.148       287.159       287.166
         19.4       287.052       287.142        287.18       287.194       287.201
         19.5       287.088       287.103       287.196       287.221        287.23
         19.6        287.12       287.111       287.173       287.233       287.246
         19.7       287.129        287.12       287.118       287.206       287.238
         19.8       287.131       287.123       287.119       287.122       287.198
         19.9       287.134       287.126       287.121       287.106       287.087
           20       287.138       287.128       287.119       287.079        286.98
         20.1       287.143       287.132       287.106       287.016       286.988
         20.2       287.155       287.136       287.064       287.036       287.044
         20.3       287.171       287.128       287.068       287.077       287.084
         20.4       287.154       287.094       287.105       287.115       287.122
         20.5       287.053       287.112       287.139       287.149       287.156
         20.6       287.049       287.102        287.16       287.178       287.186
         20.7       287.082       287.076       287.156       287.196       287.207
         20.8       287.099       287.091       287.097       287.186       287.209
         20.9       287.101       287.094        287.09       287.128       287.171
           21       287.104       287.097       287.092       287.083        287.11
         21.1       287.107       287.099       287.092       287.064       286.988
         21.2       287.111       287.102       287.084       287.011       286.991
         21.3       287.119       287.105       287.056       287.004        287.01
         21.4       287.135       287.104       287.033       287.037       287.044
         21.5       287.131       287.069       287.065       287.074        287.08
         21.6       287.065       287.079       287.098       287.107       287.114
         21.7       287.017        287.08       287.121       287.135       287.143
         21.8       287.045       287.047       287.126       287.156       287.165
         21.9       287.066       287.059       287.085       287.156       287.173
           22        287.07       287.064       287.061       287.116       287.156
         22.1       287.072       287.066       287.062       287.059       287.103
         22.2       287.075       287.068       287.062       287.042        286.98
         22.3       287.078        287.07       287.056       287.003       286.963
         22.4       287.084       287.072       287.036       286.977        286.98
         22.5       287.097       287.073       287.004       287.001       287.008
         22.6       287.099       287.048       287.027       287.036       287.042
         22.7       287.054       287.044       287.058       287.067       287.074
         22.8        286.99       287.049       287.082       287.095       287.102
         22.9       287.009       287.022        287.09       287.115       287.117
           23       287.031       287.025       287.063        287.12       287.117
         23.1       287.038       287.031       287.031        287.09       287.122
         23.2       287.039       287.033       287.029       287.035        287.08
         23.3       287.041       287.034       287.029       287.015       286.978
         23.4       287.044       287.036       287.024       286.984       286.939
         23.5       287.049       287.038       287.008       286.951       286.949
         23.6       287.059       287.038       286.979       286.968       286.974
         23.7       287.063        287.02       286.992           287       287.005
         23.8       287.028        287.01        287.02       287.029       287.034
         23.9       286.967       287.014       287.042       287.055       287.054
           24       286.975       286.994       287.052       287.075       287.055
         24.1       286.995       286.991       287.031        287.08        287.09
         24.2       287.003       286.997       286.999       287.056       287.083
         24.3       287.004       286.999       286.995       287.007       287.046
         24.4       287.006       286.999       286.995       286.983       286.961
         24.5       287.008       287.001        286.99       286.955       286.914
         24.6       287.012       287.002       286.975       286.925       286.909
         24.7        287.02       287.001       286.949       286.936       286.913
         24.8       287.023       286.986       286.958       286.964       286.948
         24.9       286.993       286.975       286.982       286.991       286.991
           25       286.939       286.977       287.003       287.015        287.02
         25.1       286.941       286.961       287.011       287.033       287.039
         25.2       286.959       286.956       286.993       287.037       287.049
         25.3       286.966        286.96       286.965       287.015       287.039
         25.4       286.967       286.962       286.959       286.972       286.982
         25.5       286.968       286.962       286.958       286.947       286.933
         25.6        286.97       286.963       286.953        286.92       286.885
         25.7       286.974       286.964       286.938       286.895        286.89
         25.8       286.981       286.962       286.917       286.904       286.906
         25.9       286.981       286.948       286.924       286.929       286.907
           26        286.95       286.939       286.945       286.953       286.946
         26.1       286.908       286.938       286.963       286.974       286.978
         26.2       286.908       286.924       286.969        286.99       286.995
         26.3       286.922       286.919       286.951       286.992       287.004
         26.4       286.927       286.922       286.927       286.969       286.978
         26.5       286.928       286.923       286.921       286.932       286.935
         26.6       286.929       286.923       286.919       286.907       286.892
         26.7       286.931       286.923       286.913       286.882       286.855
         26.8       286.934       286.924       286.898       286.863       286.859
         26.9        286.94        286.92       286.882       286.872       286.875
           27       286.935       286.908       286.889       286.893       286.898
         27.1       286.904         286.9       286.908       286.915       286.913
         27.2       286.872       286.895       286.922       286.934       286.913
         27.3       286.873       286.884       286.923       286.946       286.929
         27.4       286.883       286.881       286.906       286.943       286.955
         27.5       286.887       286.882       286.887       286.919       286.942
         27.6       286.888       286.882       286.881       286.888       286.902
         27.7       286.888       286.882       286.878       286.865       286.826
         27.8        286.89       286.882        286.87       286.841       286.819
         27.9       286.893       286.881       286.856        286.83       286.824
           28       286.896       286.876       286.847       286.839        286.84
         28.1       286.885       286.865       286.854       286.858       286.861
         28.2       286.856       286.859       286.869       286.877       286.877
         28.3       286.836       286.851       286.878       286.892       286.872
         28.4       286.836       286.843       286.874       286.899       286.885
         28.5       286.842        286.84       286.858       286.891       286.903
         28.6       286.845        286.84       286.845       286.867       286.883
         28.7       286.845        286.84       286.838       286.841       286.845
         28.8       286.846       286.839       286.833       286.818       286.807
         28.9       286.848       286.839       286.824       286.802       286.791
           29        286.85       286.836       286.814       286.799       286.794
         29.1       286.847        286.83       286.814       286.811        286.81
         29.2       286.831       286.824       286.824       286.829       286.802
         29.3       286.813       286.818       286.834       286.846        286.85
         29.4       286.809        286.81       286.829       286.849       286.833
         29.5       286.805       286.803       286.815       286.834       286.843
         29.6         286.8       286.798       286.804       286.813       286.818
         29.7       286.798       286.794       286.795       286.795       286.797
         29.8       286.799       286.791       286.786       286.785       286.779
         29.9       286.797       286.789       286.783       286.782       286.781
           30       286.792       286.786       286.783       286.783       286.783
         30.1       286.787       286.782       286.783       286.785       286.762
         30.2       286.781       286.777        286.78       286.786        286.79
         30.3       286.776       286.772       286.777       286.784       286.789
         30.4       286.771       286.768       286.773        286.78       286.781
         30.5       286.767       286.764       286.767       286.774       286.775
         30.6       286.764        286.76       286.762       286.766       286.754
         30.7       286.762       286.756       286.757        286.76       286.762
         30.8       286.758       286.752       286.752       286.754       286.755
         30.9       286.754       286.749       286.748        286.75       286.751
           31        286.75       286.745       286.745       286.747        286.75
         31.1       286.745        286.74       286.741       286.745       286.746
         31.2        286.74       286.735       286.738       286.742       286.727
         31.3       286.736       286.731       286.734       286.739       286.743
         31.4       286.731       286.727       286.729       286.735       286.737
         31.5       286.727       286.722       286.725        286.73       286.717
         31.6       286.723       286.718        286.72       286.724       286.726
         31.7       286.719       286.714       286.715       286.719         286.7
         31.8       286.715        286.71        286.71       286.714       286.715
         31.9       286.711       286.705       286.706       286.709       286.699
           32       286.706       286.701       286.702       286.705       286.707
         32.1       286.702       286.697       286.698       286.702       286.701
         32.2       286.697       286.692       286.694       286.698         286.7
         32.3       286.692       286.688        286.69       286.694       286.695
         32.4       286.688       286.683       286.685        286.69        286.67
         32.5       286.684       286.679       286.681       286.685       286.686
         32.6       286.679       286.674       286.676        286.68       286.668
         32.7       286.675        286.67       286.671       286.675       286.677
         32.8        286.67       286.665       286.666        286.67       286.671
         32.9       286.666       286.661       286.662       286.666       286.645
           33       286.662       286.656       286.657       286.661       286.663
         33.1       286.657       286.652       286.653       286.657       286.659
         33.2       286.652       286.647       286.648       286.653       286.637
         33.3       286.648       286.642       286.644       286.648       286.649
         33.4       286.643       286.638        286.64       286.644        286.64
         33.5       286.638       286.633       286.635        286.64       286.641
         33.6       286.633       286.629        286.63       286.635       286.635
         33.7       286.629       286.624       286.625        286.63       286.628
         33.8       286.624       286.619       286.621       286.625       286.626
         33.9        286.62       286.615       286.616        286.62       286.621
           34       286.615        286.61       286.611       286.615       286.617
         34.1       286.611       286.606       286.607       286.611       286.591
         34.2       286.606       286.601       286.602       286.606       286.608
         34.3       286.601       286.596       286.597       286.602       286.602
         34.4       286.596       286.591       286.593       286.597       286.596
         34.5       286.591       286.587       286.588       286.593       286.593
         34.6       286.587       286.582       286.583       286.588       286.589
         34.7       286.582       286.577       286.578       286.583       286.585
         34.8       286.578       286.572       286.574       286.578       286.557
         34.9       286.573       286.568       286.569       286.573       286.575
           35       286.568       286.563       286.564       286.568       286.569
         35.1       286.563       286.558       286.559       286.563       286.565
         35.2       286.558       286.553       286.554       286.559       286.543
         35.3       286.554       286.548        286.55       286.554       286.556