# Probe 0 (1 0 0)
# Probe 1 (10 0 0)
# Probe 2 (20 0 0)
# Probe 3 (30 0 0)
# Probe 4 (40 0 0)
#       Probe             0             1             2             3             4
#        Time
            0        289.43        289.43        289.43        289.43       289.208
          0.1       289.435       289.435       289.432        289.43       289.176
          0.2        289.43        289.43        289.43       289.159        289.11
          0.3       289.429        289.43        289.43       289.182       289.145
          0.4       289.429       289.429       289.176       289.199       289.115
          0.5       289.428       289.428       289.185       289.183       289.132
          0.6       289.428       289.199       289.197        289.18       289.102
          0.7       289.418       289.191       289.196       289.188        289.12
          0.8       288.922       289.149       289.198       289.182       289.127
          0.9       288.954         289.1       289.143       289.155        289.15
            1       288.953       288.943       289.134        289.14       289.082
          1.1       288.954       288.948       288.967        289.13       289.066
          1.2       288.941       288.932        288.91       289.114       289.064
          1.3        288.93       288.918       288.908       288.918       289.045
          1.4       288.929       288.917       288.902       288.921       289.014
          1.5       288.926       288.912       288.897       288.897       288.772
          1.6       288.922       288.906       288.891       288.853       288.823
          1.7       288.915       288.898       288.877        288.78       288.797
          1.8       288.909       288.881       288.821       288.782       288.847
          1.9         288.9       288.869       288.774       288.784       288.826
            2       288.874       288.754       288.773       288.784       288.813
          2.1       288.818       288.751       288.777       288.785       288.815
          2.2        288.64       288.735       288.779        288.79       288.818
          2.3       288.643       288.679       288.771       288.795       288.817
          2.4       288.645       288.624       288.755       288.796       288.819
          2.5       288.641       288.625       288.611       288.781       288.817
          2.6       288.636       288.622       288.612       288.747       288.809
          2.7       288.631       288.621       288.603       288.604       288.717
          2.8       288.631       288.615       288.601       288.591       288.608
          2.9       288.629       288.611       288.597       288.579       288.498
            3       288.624        288.61       288.586       288.473       288.505
          3.1        288.62       288.602       288.568       288.467       288.516
          3.2       288.623       288.585       288.471        288.48       288.525
          3.3       288.604       288.488        288.48       288.494       288.529
          3.4       288.565       288.466       288.491       288.505       288.534
          3.5       288.334       288.462         288.5       288.516       288.556
          3.6       288.351       288.436       288.504       288.524       288.545
          3.7       288.375       288.344       288.494       288.529       288.569
          3.8       288.373       288.349       288.375       288.518       288.568
          3.9       288.369       288.346       288.326       288.488       288.553
            4       288.365       288.344       288.318       288.313       288.472
          4.1       288.367       288.338       288.313       288.306       288.352
          4.2       288.364       288.335       288.308       288.292       288.231
          4.3       288.357       288.332         288.3       288.223       288.243
          4.4       288.351       288.326       288.281       288.189       288.237
          4.5       288.353       288.306       288.183       288.203       288.252
          4.6       288.343       288.256       288.198       288.226       288.263
          4.7       288.306       288.179       288.216       288.232       288.235
          4.8       288.125       288.185       288.226       288.248       288.291
          4.9       288.068       288.164       288.235       288.262       288.292
            5       288.085       288.045       288.229       288.267       288.314
          5.1       288.099        288.06       288.145       288.266       288.307
          5.2       288.102       288.059       288.039       288.227       288.294
          5.3       288.098       288.057       288.035       288.048       288.263
          5.4       288.095       288.054        288.03       288.023       288.098
          5.5       288.092       288.049       288.025       288.006       287.935
          5.6       288.089       288.044       288.015       287.936       287.936
          5.7       288.083       288.037       287.991       287.909       287.937
          5.8       288.085       288.026       287.907       287.924       287.957
          5.9       288.082        287.97       287.921       287.947       287.978
            6       288.035       287.899       287.942       287.968       287.979
          6.1       287.792       287.908       287.959       287.988       288.016
          6.2       287.795       287.887        287.97       288.004       288.031
          6.3       287.818       287.779       287.955       288.014        288.04
          6.4       287.835       287.794       287.828        288.01       288.044
          6.5       287.834       287.791       287.783       287.961       288.028
          6.6        287.83       287.789        287.78       287.785       287.983
          6.7       287.826       287.786       287.775       287.777       287.781
          6.8       287.824       287.781       287.768       287.739       287.656
          6.9        287.82       287.778        287.75       287.628       287.646
            7       287.818       287.771       287.705       287.639       287.632
          7.1       287.825       287.753       287.638       287.665       287.694
          7.2       287.815       287.664       287.665       287.693       287.722
          7.3       287.743       287.639       287.692       287.719       287.744
          7.4       287.489       287.645       287.713        287.74       287.767
          7.5       287.542       287.597       287.721        287.76       287.787
          7.6       287.567       287.523       287.693        287.77       287.798
          7.7       287.582       287.533       287.551       287.753       287.761
          7.8       287.578       287.531       287.549       287.676       287.764
          7.9       287.575       287.529       287.545       287.543       287.683
            8       287.575       287.524       287.541       287.532       287.359
          8.1       287.571       287.522       287.529       287.482       287.353
          8.2       287.569       287.519       287.502        287.36         287.4
          8.3       287.573       287.511       287.412       287.379        287.38
          8.4        287.58       287.488       287.383       287.415       287.454
          8.5       287.555       287.371       287.414       287.448       287.484
          8.6       287.434       287.395       287.445       287.478       287.505
          8.7       287.274       287.381       287.468       287.505       287.539
          8.8       287.312        287.27        287.47       287.525       287.559
          8.9       287.337       287.299       287.431        287.53       287.572
            9       287.344       287.302       287.316       287.481       287.555
          9.1       287.344       287.301       287.314       287.337       287.509
          9.2       287.342       287.301        287.31       287.315       287.392
          9.3       287.339       287.299       287.305       287.274       287.146
          9.4       287.338       287.297        287.29       287.154       287.122
          9.5       287.342       287.294       287.247       287.145       287.136
          9.6       287.356       287.285       287.149        287.18       287.204
          9.7       287.355         287.2        287.19        287.22       287.247
          9.8       287.285       287.189       287.228       287.256       287.273
          9.9       287.063       287.199       287.259        287.29       287.278
           10       287.109       287.176       287.275       287.318       287.324
         10.1       287.139       287.107       287.245       287.334       287.366
         10.2       287.158       287.123       287.131       287.315       287.363
         10.3       287.158       287.121       287.131       287.247       287.327
         10.4       287.157       287.123       287.129       287.132       287.212
         10.5       287.157       287.121       287.127       287.108       286.937
         10.6       287.157       287.121       287.116       287.059        286.97
         10.7       287.161       287.122       287.084        286.96       286.985
         10.8       287.173       287.119       286.969       286.992       287.017
         10.9       287.186       287.099       287.012       287.038       287.065
           11       287.141       287.021       287.054       287.081       287.098
         11.1        286.97       287.045       287.093       287.119       287.128
         11.2       286.941        287.03       287.119       287.153       287.174
         11.3       286.985       286.956       287.111       287.176       287.201
         11.4       287.012       286.983       287.026       287.174       287.181
         11.5       287.015       286.983       286.988       287.108       287.179
         11.6       287.016       286.985       286.987       286.987       287.097
         11.7       287.015       286.986       286.985       286.973       286.936
         11.8       287.015       286.986       286.981       286.921       286.818
         11.9        287.02       286.988       286.955       286.821       286.823
           12       287.032       286.988       286.914        286.85        286.87
         12.1       287.051        286.97       286.875         286.9       286.922
         12.2       287.021       286.893       286.924       286.946       286.966
         12.3       286.926       286.926       286.966       286.988       287.009
         12.4       286.821       286.916       286.998       287.027       287.035
         12.5       286.868       286.843       286.997       287.054       287.079
         12.6       286.898       286.874       286.962       287.059       287.092
         12.7       286.905       286.878        286.88       287.004       287.073
         12.8       286.906        286.88        286.88       286.876       286.993
         12.9       286.907       286.883       286.879       286.867       286.875
           13       286.909       286.883       286.877        286.82       286.719
         13.1       286.915       286.887       286.855        286.72       286.704
         13.2       286.927       286.889       286.817       286.748       286.765
         13.3       286.948       286.876       286.778       286.798       286.816
         13.4       286.924       286.803       286.828       286.848       286.866
         13.5       286.849       286.837       286.873       286.894       286.897
         13.6       286.735       286.833       286.907       286.933        286.95
         13.7       286.781       286.761        286.91       286.964       286.951
         13.8       286.816       286.794       286.879       286.969       287.001
         13.9       286.823       286.801       286.801       286.918       286.986
           14       286.825       286.804       286.802       286.795       286.906
         14.1       286.828       286.806       286.803       286.787       286.782
         14.2       286.832       286.809         286.8       286.742       286.646
         14.3       286.838       286.813       286.776       286.648       286.664
         14.4       286.853       286.817       286.742        286.68       286.695
         14.5       286.874       286.808       286.713       286.731       286.745
         14.6       286.848       286.742       286.764       286.782       286.798
         14.7       286.766       286.773       286.809       286.829       286.815
         14.8       286.679       286.771       286.843        286.87       286.885
         14.9       286.726       286.707       286.842       286.899       286.889
           15        286.76        286.74       286.808       286.902       286.934
         15.1       286.765       286.747       286.744       286.845       286.913
         15.2       286.768        286.75       286.746        286.74       286.826
         15.3       286.771       286.753       286.748       286.726       286.698
         15.4       286.776       286.757       286.744       286.684       286.596
         15.5       286.785       286.763       286.718       286.604       286.581
         15.6       286.802       286.763        286.68       286.637       286.654
         15.7       286.822       286.756       286.675       286.692        286.68
         15.8       286.785       286.704       286.726       286.742       286.758
         15.9       286.673        286.73        286.77       286.788       286.792
           16       286.647       286.723       286.801       286.828       286.844
         16.1       286.694       286.677       286.792       286.855       286.851
         16.2       286.723       286.705        286.73       286.846       286.883
         16.3       286.726        286.71       286.705       286.789       286.829
         16.4       286.729       286.714       286.709         286.7       286.764
         16.5       286.733       286.718       286.711       286.679        286.58
         16.6       286.739       286.722       286.703       286.636       286.567
         16.7       286.751       286.728       286.674       286.581       286.595
         16.8       286.771       286.728       286.615        286.62       286.634
         16.9       286.782       286.716       286.659       286.674       286.687
           17       286.733       286.686       286.708       286.724       286.708
         17.1       286.604       286.702        286.75       286.768        286.78
         17.2       286.637        286.69       286.772       286.805        286.82
         17.3       286.678       286.664       286.757       286.824       286.816
         17.4       286.698       286.683       286.678       286.798       286.821
         17.5       286.701       286.688       286.683       286.729         286.8
         17.6       286.705       286.691       286.686       286.672       286.699
         17.7        286.71       286.696       286.686       286.642       286.535
         17.8       286.718       286.701       286.672       286.584       286.534
         17.9       286.732       286.707       286.645       286.576       286.587
           18       286.755       286.704       286.611       286.622       286.616
         18.1       286.744       286.665       286.661       286.674       286.684
         18.2       286.683       286.679       286.707       286.721       286.731
         18.3       286.595       286.682       286.742       286.763       286.765
         18.4        286.64        286.64       286.749       286.794       286.807
         18.5       286.674        286.66       286.718       286.799       286.824
         18.6       286.683       286.671       286.668       286.755       286.805
         18.7       286.687       286.675       286.671       286.665       286.734
         18.8       286.692       286.679       286.674       286.649       286.612
         18.9       286.698       286.684        286.67       286.613       286.539
           19       286.708       286.691       286.648       286.554        286.56
         19.1       286.727       286.693       286.609       286.586       286.565
         19.2       286.742       286.685       286.626       286.637       286.647
         19.3       286.706       286.656       286.674       286.685       286.694
         19.4       286.604       286.673       286.715       286.729       286.723
         19.5       286.612       286.665       286.739       286.765        286.77
         19.6       286.651       286.642       286.727       286.786       286.803
         19.7       286.672        286.66       286.665       286.766       286.803
         19.8       286.676       286.666       286.663       286.704       286.757
         19.9       286.681        286.67       286.666       286.652       286.663
           20       286.686       286.675       286.666       286.624       286.534
         20.1       286.694       286.681       286.654       286.573       286.547
         20.2       286.709       286.687       286.628       286.568       286.568
         20.3       286.729       286.685       286.605       286.611       286.604
         20.4       286.717       286.653        286.65        286.66       286.668
         20.5       286.654       286.665       286.693       286.704       286.713
         20.6       286.596       286.668       286.724       286.743       286.753
         20.7       286.634       286.635       286.728        286.77       286.782
         20.8       286.663       286.653       286.692        286.77       286.796
         20.9       286.671       286.662       286.659       286.726       286.774
           21       286.675       286.666       286.662       286.656       286.702
         21.1        286.68       286.671       286.665       286.635       286.572
         21.2       286.688       286.676       286.658       286.597       286.536
         21.3       286.699       286.683       286.637       286.563       286.537
         21.4       286.718       286.684       286.604       286.596       286.604
         21.5       286.721       286.668       286.635       286.643       286.651
         21.6       286.679        286.66       286.678       286.687       286.695
         21.7       286.599       286.668       286.712       286.727       286.735
         21.8       286.624       286.648       286.725       286.758       286.768
         21.9       286.655       286.648       286.705       286.767       286.787
           22       286.668       286.661       286.662       286.737       286.776
         22.1       286.673       286.666       286.661       286.671       286.722
         22.2       286.678       286.671       286.665       286.643        286.62
         22.3       286.685       286.676       286.661       286.611        286.55
         22.4       286.695       286.681       286.644        286.57       286.549
         22.5       286.711       286.684       286.616        286.59       286.598
         22.6       286.721       286.676       286.628       286.634       286.641
         22.7       286.691       286.658       286.668       286.677       286.685
         22.8       286.618       286.669       286.704       286.716       286.725
         22.9        286.62       286.658       286.722       286.748       286.758
           23       286.651       286.648       286.709       286.763       286.779
         23.1       286.668       286.661       286.668       286.742       286.753
         23.2       286.673       286.667       286.663       286.686       286.734
         23.3       286.678       286.672       286.665        286.65       286.629
         23.4       286.684       286.676       286.663       286.622       286.544
         23.5       286.693       286.682        286.65       286.583       286.567
         23.6       286.708       286.686       286.625       286.592       286.591
         23.7       286.719       286.679       286.628       286.631       286.623
         23.8       286.696       286.662       286.665       286.673       286.655
         23.9       286.634        286.67       286.699       286.711       286.692
           24       286.622       286.663        286.72       286.742       286.729
         24.1        286.65       286.651       286.711       286.758       286.765
         24.2       286.668       286.662       286.676       286.744       286.773
         24.3       286.674       286.669       286.666       286.695        286.73
         24.4       286.679       286.673       286.668       286.656       286.663
         24.5       286.685       286.678       286.666       286.629        286.58
         24.6       286.694       286.683       286.655       286.594       286.555
         24.7       286.707       286.687       286.633       286.598       286.575
         24.8       286.717       286.681       286.632       286.633       286.612
         24.9       286.697       286.667       286.665       286.673        286.65
           25       286.643       286.672       286.698       286.709       286.688
         25.1       286.628       286.666       286.717       286.739       286.723
         25.2       286.652       286.655       286.711       286.754       286.755
         25.3       286.669       286.664        286.68       286.741       286.766
         25.4       286.676       286.671       286.669       286.697       286.732
         25.5        286.68       286.675        286.67        286.66       286.662
         25.6       286.686       286.679       286.668       286.633       286.582
         25.7       286.694       286.684       286.657       286.603       286.584
         25.8       286.707       286.687       286.638       286.606       286.607
         25.9       286.714       286.681       286.639       286.639       286.641
           26       286.694        286.67       286.669       286.676       286.677
         26.1       286.647       286.673       286.699        286.71       286.711
         26.2       286.635       286.666       286.715       286.737        286.74
         26.3       286.655       286.659       286.707       286.749       286.761
         26.4        286.67       286.666       286.682       286.734        286.76
         26.5       286.677       286.672       286.672       286.694       286.726
         26.6       286.681       286.676       286.671        286.66       286.643
         26.7       286.687       286.681       286.669       286.633       286.597
         26.8       286.695       286.685       286.658       286.609       286.594
         26.9       286.707       286.687       286.641       286.615       286.617
           27        286.71        286.68       286.647       286.645       286.649
         27.1       286.687       286.672       286.674        286.68       286.682
         27.2       286.648       286.672         286.7       286.711       286.712
         27.3       286.642       286.666       286.712       286.735       286.722
         27.4       286.658       286.662       286.702       286.742        286.75
         27.5       286.671       286.667       286.681       286.724       286.749
         27.6       286.677       286.673       286.672       286.688        286.71
         27.7       286.682       286.677       286.671       286.657       286.646
         27.8       286.688       286.681       286.667       286.631       286.581
         27.9       286.696       286.685       286.656       286.615       286.602
           28       286.705       286.684       286.645       286.626       286.624
         28.1       286.702       286.678       286.655       286.654       286.655
         28.2       286.677       286.673       286.679       286.685       286.687
         28.3        286.65        286.67         286.7       286.713       286.718
         28.4       286.649       286.665       286.705       286.731       286.739
         28.5       286.661       286.664       286.693        286.73       286.746
         28.6       286.671       286.668       286.678       286.709       286.729
         28.7       286.676       286.672       286.672       286.679       286.692
         28.8       286.681       286.676       286.668       286.652       286.639
         28.9       286.688        286.68       286.663       286.631       286.616
           29       286.696       286.683       286.654       286.627       286.619
         29.1         286.7       286.681       286.656       286.645       286.644
         29.2        286.69       286.679       286.675       286.676       286.659
         29.3       286.669       286.679       286.698       286.708       286.713
         29.4       286.669       286.675         286.7       286.723       286.733
         29.5        286.67       286.671       286.687       286.709       286.718
         29.6       286.668       286.668       286.676       286.687       286.691
         29.7        286.67       286.668       286.669       286.667       286.644
         29.8       286.676        286.67       286.662       286.655       286.654
         29.9       286.679       286.671       286.662       286.655       286.651
           30       286.679       286.673       286.667       286.661       286.662
         30.1       286.677       286.672       286.672        286.67        286.67
         30.2       286.674       286.672       286.675        286.68       286.678
         30.3       286.672        286.67       286.676       286.683       286.686
         30.4        286.67       286.669       286.676       286.683       286.691
         30.5        286.67       286.668       286.674        286.68       286.683
         30.6        286.67       286.668       286.672       286.675       286.676
         30.7       286.672       286.669       286.669        286.67        286.65
         30.8       286.674       286.669       286.667       286.666       286.668
         30.9       286.674       286.669       286.667       286.666       286.666
           31       286.673       286.669       286.668       286.667       286.668
         31.1       286.672       286.668       286.669        286.67       286.671
         31.2       286.671       286.668        286.67       286.672       286.675
         31.3       286.669       286.667        286.67       286.674       286.677
         31.4       286.668       286.666        286.67       286.674       286.652
         31.5       286.668       286.666       286.669       286.673       286.675
         31.6       286.668       286.665       286.667       286.671       286.673
         31.7       286.668       286.665       286.666       286.668       286.669
         31.8       286.668       286.664       286.665       286.666       286.645
         31.9       286.668       286.664       286.664       286.664       286.665
           32       286.668       286.664       286.664       286.664       286.643
         32.1       286.667       286.663       286.664       286.665       286.666
         32.2       286.666       286.663       286.664       286.665       286.645
         32.3       286.665       286.662       286.664       286.666       286.668
         32.4       286.664       286.661       286.663       286.666       286.653
         32.5       286.663        286.66       286.663       286.665       286.668
         32.6       286.662       286.659       286.662       286.664       286.668
         32.7       286.662       286.659       286.661       286.662       286.664
         32.8       286.662       286.658       286.659       286.661       286.661
         32.9       286.661       286.658       286.658        286.66       286.651
           33       286.661       286.657       286.658       286.659        286.66
         33.1        286.66       286.656       286.657       286.658       286.659
         33.2       286.659       286.656       286.657       286.658       286.638
         33.3       286.658       286.655       286.656       286.658        286.66
         33.4       286.657       286.654       286.656       286.658        286.66
         33.5       286.656       286.653       286.655       286.657       286.637
         33.6       286.655       286.652       286.654       286.656       286.658
         33.7       286.654       286.651       286.653       286.655       286.655
         33.8       286.654       286.651       286.652       286.654       286.633
         33.9       286.653        286.65       286.651       286.652       286.654
           34       286.652       286.649        286.65       286.651        286.65
         34.1       286.652       286.648       286.649        286.65       286.642
         34.2        286.65       286.647       286.648        286.65       286.651
         34.3       286.649       286.646       286.647       286.649       286.651
         34.4       286.648       286.645       286.647       286.649       286.651
         34.5       286.647       286.644       286.646       286.648       286.638
         34.6       286.646       286.643       286.645       286.647       286.649
         34.7       286.645       286.642       286.644       286.646       286.646
         34.8       286.644       286.641       286.643       286.644       286.645
         34.9       286.643        286.64       286.641       286.643       286.632
           35       286.643       286.639        286.64       286.642       286.644
         35.1       286.642       286.639       286.639       286.641       286.641
         35.2       286.641       286.637       286.638        286.64        286.64
         35.3       286.639       286.637       286.637       286.639       286.618