# Probe 0 (1 0 0)
# Probe 1 (10 0 0)
# Probe 2 (20 0 0)
# Probe 3 (30 0 0)
# Probe 4 (40 0 0)
#       Probe             0             1             2             3             4
#        Time
            0       289.208       289.208       289.208       289.208       289.208
          0.1       289.208       289.208       289.208       289.208       289.018
          0.2       289.208       289.208       289.208       289.054       289.028
          0.3       289.207       289.208       289.208        289.06       289.032
          0.4       289.207       289.207       289.042       289.057       289.034
          0.5       289.207       289.207       289.045       289.057        289.04
          0.6       289.207       289.054       289.046       289.058       289.038
          0.7         289.2       289.055       289.047       289.057       289.041
          0.8       288.901       289.051       289.049       289.056       289.047
          0.9       288.906        289.03       289.044       289.051       289.047
            1       288.903       288.898       289.043       289.044       289.025
          1.1       288.903       288.898         288.9       289.037       289.022
          1.2       288.902       288.896       288.897       289.026       289.016
          1.3       288.901       288.894       288.898       288.892           289
          1.4         288.9       288.894       288.896       288.888       288.988
          1.5         288.9       288.893       288.895       288.883       288.724
          1.6       288.899       288.892       288.888       288.867       288.727
          1.7       288.894        288.89        288.88       288.752       288.734
          1.8       288.887       288.882       288.752       288.752       288.735
          1.9       288.878       288.872       288.753       288.753       288.738
            2       288.862       288.748       288.751       288.752       288.739
          2.1       288.834       288.745       288.749        288.75       288.737
          2.2         288.6       288.735       288.746       288.748        288.73
          2.3       288.601       288.698        288.74       288.744       288.724
          2.4       288.601       288.612       288.728        288.74       288.724
          2.5       288.599       288.611       288.609       288.733       288.719
          2.6       288.599        288.61       288.608       288.705       288.707
          2.7       288.598       288.606       288.606       288.593       288.694
          2.8       288.597       288.604       288.602       288.591       288.637
          2.9       288.597       288.602       288.596        288.58       288.424
            3       288.596       288.596       288.588       288.467       288.428
          3.1       288.596       288.589       288.566       288.466       288.429
          3.2       288.587        288.58       288.459       288.466       288.434
          3.3       288.574       288.534        288.46       288.464       288.434
          3.4       288.548       288.454       288.458       288.464       288.436
          3.5       288.365       288.449       288.457       288.461       288.437
          3.6       288.325       288.424       288.452       288.457       288.437
          3.7       288.325        288.33       288.442       288.452       288.437
          3.8       288.324        288.33       288.396       288.445       288.427
          3.9       288.324       288.327       288.321       288.426       288.418
            4       288.323       288.323        288.32       288.309       288.408
          4.1       288.322        288.32       288.317       288.306       288.351
          4.2       288.316       288.317        288.31       288.297       288.163
          4.3       288.311       288.311       288.303       288.229       288.166
          4.4       288.308       288.302       288.284       288.183       288.167
          4.5       288.298        288.29        288.19       288.184       288.169
          4.6       288.286       288.244        288.18       288.184       288.169
          4.7       288.261       288.172        288.18       288.183       288.167
          4.8       288.097       288.167       288.178        288.18       288.165
          4.9       288.051       288.141        288.17       288.177       288.158
            5       288.051       288.055        288.16        288.17       288.158
          5.1        288.05       288.053       288.096       288.162       288.153
          5.2       288.049        288.05       288.047       288.144       288.137
          5.3       288.047       288.046       288.045       288.062       288.122
          5.4       288.043       288.042       288.039        288.03       288.049
          5.5       288.037       288.037       288.031       288.015       287.884
          5.6       288.034        288.03       288.022       287.939       287.888
          5.7       288.028       288.022       287.999       287.912        287.89
          5.8       288.017       288.009       287.917        287.91       287.891
          5.9       288.004        287.95       287.907       287.909       287.892
            6       287.971       287.898       287.907       287.907       287.893
          6.1       287.821       287.891       287.902       287.906        287.89
          6.2       287.784       287.854       287.895       287.902       287.889
          6.3       287.785       287.786       287.879       287.895       287.884
          6.4       287.784       287.784       287.796       287.885       287.876
          6.5       287.781       287.779       287.779       287.856        287.86
          6.6       287.776       287.775       287.774       287.764       287.839
          6.7       287.771        287.77       287.766       287.758       287.691
          6.8       287.766       287.765       287.758       287.736       287.636
          6.9        287.76       287.757       287.745        287.65        287.63
            7       287.752       287.747         287.7       287.644       287.625
          7.1       287.742       287.729       287.643       287.644        287.63
          7.2       287.723       287.634       287.641       287.643       287.628
          7.3       287.665       287.631       287.639       287.641       287.626
          7.4       287.521       287.616       287.633       287.638       287.622
          7.5       287.521       287.524       287.624       287.632       287.621
          7.6        287.52       287.523       287.602       287.625       287.615
          7.7       287.519       287.519       287.518       287.608       287.602
          7.8       287.515       287.514       287.514       287.534       287.587
          7.9        287.51        287.51       287.506       287.499       287.554
            8       287.505       287.503       287.499       287.485       287.369
          8.1       287.499       287.496       287.488       287.441       287.373
          8.2       287.491       287.489       287.468       287.383       287.369
          8.3       287.482       287.476       287.379       287.382       287.367
          8.4        287.47       287.444       287.379       287.382        287.37
          8.5       287.441        287.37       287.377       287.381       287.368
          8.6       287.304       287.364       287.374       287.378       287.365
          8.7       287.262       287.342       287.369       287.375       287.356
          8.8       287.262       287.267       287.354       287.368       287.356
          8.9       287.261       287.265       287.285       287.357       287.349
            9       287.261        287.26       287.257       287.331       287.333
          9.1       287.255       287.253       287.251       287.246       287.309
          9.2       287.249       287.248       287.244       287.235       287.224
          9.3       287.242       287.241       287.236       287.212       287.119
          9.4       287.235       287.233       287.221       287.131       287.113
          9.5       287.227       287.221       287.185       287.128       287.112
          9.6       287.217       287.202       287.125       287.127       287.113
          9.7       287.198       287.118       287.124       287.126       287.112
          9.8       287.138       287.114       287.122       287.124       287.111
          9.9       287.012       287.098       287.116       287.121       287.107
           10       287.012       287.024       287.105       287.115       287.104
         10.1       287.011       287.015       287.079       287.107       287.094
         10.2       287.011        287.01       287.008       287.086       287.086
         10.3       287.005       287.003       287.002       287.006       287.066
         10.4       286.998       286.997       286.994       286.988       287.022
         10.5       286.991        286.99       286.986       286.969       286.873
         10.6       286.984       286.981       286.973       286.904        286.87
         10.7       286.976       286.972       286.948       286.879       286.866
         10.8       286.966       286.955       286.875       286.878       286.865
         10.9       286.951        286.91       286.874       286.877       286.864
           11       286.909       286.865       286.873       286.874       286.858
         11.1       286.766       286.853       286.868       286.871       286.858
         11.2       286.766       286.818       286.859       286.866       286.853
         11.3       286.766       286.769       286.837       286.859       286.849
         11.4       286.765       286.764        286.76       286.841       286.838
         11.5       286.759       286.758       286.756       286.802       286.822
         11.6       286.752       286.751       286.748       286.742       286.784
         11.7       286.744       286.743       286.739       286.726       286.626
         11.8       286.736       286.735       286.728       286.694       286.622
         11.9       286.728       286.725       286.704       286.634       286.619
           12       286.718        286.71       286.629       286.633        286.62
         12.1       286.704       286.678       286.629       286.632       286.619
         12.2        286.67        286.62       286.627       286.629       286.618
         12.3       286.545        286.61       286.622       286.626       286.612
         12.4       286.525       286.583       286.614        286.62       286.608
         12.5       286.524       286.526       286.594       286.613         286.6
         12.6       286.523       286.522       286.521       286.597       286.593
         12.7       286.516       286.515       286.513       286.561       286.576
         12.8       286.509       286.508       286.505       286.498       286.542
         12.9       286.501         286.5       286.496       286.483         286.4
           13       286.492       286.491       286.484       286.453       286.386
         13.1       286.483        286.48       286.462       286.394       286.382
         13.2       286.473       286.465       286.392       286.391       286.379
         13.3       286.459       286.436       286.387        286.39       286.377
         13.4       286.425       286.378       286.385       286.387       286.375
         13.5       286.315       286.367        286.38       286.383       286.367
         13.6       286.288       286.342       286.371       286.377       286.366
         13.7       286.288       286.287       286.351       286.369        286.36
         13.8       286.284       286.282       286.288       286.352       286.349
         13.9       286.276       286.275       286.272       286.319       286.332
           14       286.268       286.267       286.264       286.258       286.297
         14.1       286.259       286.258       286.255       286.242       286.175
         14.2        286.25       286.248       286.242       286.211        286.15
         14.3        286.24       286.238       286.219       286.157       286.146
         14.4        286.23       286.221        286.16       286.153       286.141
         14.5       286.215       286.191       286.149       286.151       286.139
         14.6       286.179       286.139       286.145       286.147       286.136
         14.7       286.074       286.126       286.139       286.142       286.131
         14.8       286.053       286.099       286.129       286.136       286.125
         14.9       286.051        286.05       286.107       286.127       286.114
           15       286.046       286.045       286.043       286.109       286.106
         15.1       286.038       286.037       286.034       286.071       286.088
         15.2       286.028       286.028       286.025       286.019       286.046
         15.3       286.019       286.018       286.015       286.001        285.93
         15.4       286.009       286.008           286       285.966       285.916
         15.5       285.999       285.996       285.975       285.922        285.91
         15.6       285.988       285.978       285.915       285.917       285.905
         15.7        285.97       285.941       285.912       285.914       285.903
         15.8       285.929       285.901       285.907       285.909       285.898
         15.9       285.827       285.886         285.9       285.903       285.892
           16        285.82       285.848       285.888       285.896       285.885
         16.1       285.816       285.815       285.863       285.885       285.875
         16.2       285.809       285.808       285.806       285.862        285.86
         16.3         285.8       285.799       285.797       285.812       285.838
         16.4        285.79       285.789       285.787       285.779       285.796
         16.5        285.78       285.779       285.775       285.758       285.693
         16.6       285.769       285.767       285.758       285.709       285.682
         16.7       285.758       285.754       285.729       285.687       285.677
         16.8       285.746       285.732       285.681       285.682       285.671
         16.9       285.723       285.679       285.676       285.678       285.665
           17       285.671       285.662        285.67       285.672       285.661
         17.1       285.591       285.643       285.661       285.665       285.654
         17.2       285.587        285.59       285.645       285.656       285.645
         17.3       285.582        285.58       285.612       285.642       285.632
         17.4       285.572       285.572        285.57       285.614       285.616
         17.5       285.562       285.562       285.559       285.555       285.592
         17.6       285.551       285.551       285.548       285.539       285.528
         17.7        285.54       285.539       285.535       285.513       285.458
         17.8       285.529       285.527       285.514       285.461       285.449
         17.9       285.517       285.511       285.473       285.453        285.44
           18       285.502       285.485       285.446       285.448       285.437
         18.1       285.471       285.437        285.44       285.442       285.431
         18.2       285.392       285.422       285.432       285.434       285.422
         18.3        285.36       285.397       285.421       285.426       285.412
         18.4       285.354       285.354       285.399       285.415       285.406
         18.5       285.346       285.345       285.349       285.396       285.393
         18.6       285.335       285.335       285.333        285.36       285.371
         18.7       285.324       285.323       285.321       285.316       285.335
         18.8       285.312       285.312       285.309       285.296       285.246
         18.9       285.301       285.299       285.292        285.26       285.224
           19       285.288       285.285       285.266       285.227       285.214
         19.1       285.275       285.265        285.22       285.219        285.21
         19.2       285.254       285.225       285.211       285.213       285.203
         19.3       285.209       285.198       285.204       285.205       285.195
         19.4       285.136       285.179       285.193       285.196       285.186
         19.5       285.127       285.137       285.177       285.186       285.177
         19.6       285.119       285.119       285.147       285.172       285.164
         19.7       285.109       285.108       285.107       285.145       285.148
         19.8       285.097       285.097       285.095       285.095       285.122
         19.9       285.085       285.084       285.082       285.074       285.065
           20       285.073       285.072       285.067       285.048       284.999
         20.1        285.06       285.058       285.046       285.003       284.989
         20.2       285.047       285.041       285.007       284.992       284.983
         20.3        285.03       285.013       284.984       284.985       284.975
         20.4       284.998       284.973       284.975       284.977       284.967
         20.5       284.928       284.956       284.966       284.968       284.958
         20.6       284.901       284.927       284.952       284.957       284.948
         20.7       284.893       284.893       284.929       284.944       284.936
         20.8       284.883       284.882       284.885       284.923        284.92
         20.9        284.87        284.87       284.869       284.884       284.898
           21       284.858       284.857       284.856       284.851       284.858
         21.1       284.845       284.844       284.841       284.828       284.786
         21.2       284.832        284.83       284.822       284.789       284.767
         21.3       284.818       284.814       284.792       284.766       284.756
         21.4       284.803       284.791       284.758       284.757       284.747
         21.5       284.777       284.751       284.747       284.749       284.738
         21.6       284.724       284.731       284.737       284.739       284.729
         21.7       284.677       284.707       284.725       284.728       284.718
         21.8       284.666        284.67       284.705       284.716       284.707
         21.9       284.656       284.656       284.668       284.697       284.692
           22       284.644       284.643       284.643       284.666       284.673
         22.1        284.63        284.63       284.629       284.626       284.639
         22.2       284.617       284.617       284.614       284.604       284.575
         22.3       284.603       284.602       284.596       284.572       284.542
         22.4       284.589       284.587        284.57       284.542       284.531
         22.5       284.574       284.566       284.534        284.53       284.521
         22.6       284.552       284.531        284.52       284.521       284.511
         22.7       284.508       284.505       284.509        284.51       284.501
         22.8       284.456       284.483       284.496       284.499       284.491
         22.9        284.44       284.449       284.478       284.487       284.478
           23        284.43       284.429       284.447       284.469       284.462
         23.1       284.417       284.416       284.417       284.441       284.444
         23.2       284.403       284.403       284.401       284.403       284.414
         23.3       284.389       284.388       284.387       284.379       284.359
         23.4       284.375       284.374       284.369       284.349       284.319
         23.5        284.36       284.358       284.345       284.317       284.305
         23.6       284.345       284.338       284.311       284.303       284.294
         23.7       284.324       284.307       284.293       284.293       284.284
         23.8       284.285       284.278       284.281       284.282       284.273
         23.9       284.234       284.257       284.268        284.27       284.261
           24       284.215       284.225        284.25       284.257       284.246
         24.1       284.203       284.203       284.221        284.24       284.233
         24.2       284.189       284.189        284.19       284.213       284.214
         24.3       284.175       284.175       284.174       284.177       284.186
         24.4        284.16        284.16       284.158       284.151       284.137
         24.5       284.146       284.145       284.141       284.123       284.095
         24.6       284.131       284.128       284.117       284.092       284.078
         24.7       284.115       284.108       284.085       284.076       284.065
         24.8       284.093       284.079       284.065       284.065       284.053
         24.9       284.057       284.051       284.052       284.053       284.043
           25        284.01       284.028       284.038        284.04       284.031
         25.1       283.988       283.999        284.02       284.027       284.018
         25.2       283.975       283.976       283.992       284.009       284.003
         25.3       283.961       283.961       283.963       283.983       283.982
         25.4       283.946       283.946       283.945       283.949       283.952
         25.5       283.931       283.931       283.929       283.923       283.908
         25.6       283.916       283.915       283.911       283.895        283.87
         25.7         283.9       283.898       283.887       283.866       283.853
         25.8       283.884       283.877       283.857       283.849       283.839
         25.9       283.861       283.849       283.837       283.836       283.824
           26       283.826       283.822       283.823       283.824       283.813
         26.1       283.784       283.798       283.808        283.81       283.801
         26.2       283.761        283.77       283.789       283.796       283.787
         26.3       283.747       283.748       283.761       283.777       283.771
         26.4       283.732       283.732       283.734       283.751       283.748
         26.5       283.716       283.716       283.716       283.719       283.718
         26.6       283.701         283.7       283.699       283.693       283.677
         26.7       283.685       283.684        283.68       283.664       283.643
         26.8       283.669       283.666       283.655       283.638       283.626
         26.9       283.651       283.645       283.628        283.62       283.612
           27       283.627       283.617       283.608       283.607       283.599
         27.1       283.592       283.591       283.593       283.594       283.584
         27.2       283.555       283.567       283.577       283.579       283.568
         27.3       283.533        283.54       283.556       283.564       283.553
         27.4       283.517       283.519       283.529       283.544       283.538
         27.5       283.502       283.502       283.504       283.517       283.517
         27.6       283.486       283.486       283.485       283.487       283.485
         27.7        283.47       283.469       283.467        283.46       283.442
         27.8       283.453       283.452       283.447       283.433       283.415
         27.9       283.436       283.434       283.422       283.409       283.396
           28       283.417        283.41       283.397       283.391       283.382
         28.1       283.391       283.384       283.378       283.377       283.368
         28.2       283.356       283.359       283.362       283.362       283.353
         28.3       283.325       283.334       283.344       283.347       283.336
         28.4       283.304       283.309       283.322        283.33        283.32
         28.5       283.287       283.288       283.296       283.308       283.303
         28.6       283.271       283.271       283.273       283.281       283.279
         28.7       283.254       283.254       283.253       283.253       283.247
         28.8       283.238       283.237       283.234       283.226       283.212
         28.9       283.221       283.219       283.212       283.201       283.186
           29       283.202       283.198       283.188       283.179       283.167
         29.1       283.179       283.174       283.166       283.162       283.152
         29.2        283.15       283.149       283.148       283.147       283.135
         29.3        283.12       283.124        283.13       283.132       283.122
         29.4       283.098         283.1       283.107       283.114       283.104
         29.5       283.078        283.08       283.084        283.09       283.083
         29.6       283.059        283.06       283.062       283.064       283.055
         29.7       283.041       283.041       283.041       283.039       283.029
         29.8       283.022       283.021       283.018       283.016       283.005
         29.9       283.002           283       282.997       282.994       282.983
           30       282.979       282.978       282.977       282.974       282.964
         30.1       282.956       282.956       282.956       282.955       282.942
         30.2       282.934       282.934       282.934       282.935       282.925
         30.3       282.912       282.912       282.913       282.914       282.905
         30.4        282.89       282.891       282.892       282.893       282.884
         30.5       282.869       282.869        282.87       282.871       282.862
         30.6       282.849       282.849       282.849       282.848       282.837
         30.7       282.828       282.828       282.827       282.826       282.816
         30.8       282.807       282.807       282.806       282.805       282.794
         30.9       282.786       282.785       282.784       282.783       282.773
           31       282.764       282.764       282.763       282.762       282.752
         31.1       282.742       282.742       282.741       282.741       282.731
         31.2        282.72        282.72        282.72        282.72       282.709
         31.3       282.698       282.698       282.698       282.699       282.689
         31.4       282.676       282.677       282.677       282.677       282.668
         31.5       282.655       282.655       282.655       282.655       282.644
         31.6       282.634       282.634       282.634       282.634       282.624
         31.7       282.613       282.612       282.612       282.612         282.6
         31.8       282.591       282.591       282.591        282.59        282.58
         31.9        282.57        282.57       282.569       282.568       282.557
           32       282.548       282.548       282.547       282.547       282.537
         32.1       282.526       282.526       282.526       282.525       282.515
         32.2       282.504       282.504       282.504       282.504       282.495
         32.3       282.483       282.483       282.483       282.482       282.473
         32.4       282.461       282.461       282.461       282.461        282.45
         32.5       282.439       282.439       282.439       282.439        282.43
         32.6       282.418       282.418       282.418       282.417       282.406
         32.7       282.396       282.396       282.396       282.396       282.386
         32.8       282.375       282.374       282.374       282.374       282.364
         32.9       282.353       282.353       282.353       282.352        282.34
           33       282.331       282.331       282.331        282.33       282.321
         33.1       282.309       282.309       282.309       282.309       282.299
         33.2       282.288       282.287       282.287       282.287       282.277
         33.3       282.266       282.266       282.266       282.265       282.256
         33.4       282.244       282.244       282.244       282.244       282.233
         33.5       282.222       282.222       282.222       282.222       282.213
         33.6         282.2         282.2         282.2         282.2       282.191
         33.7       282.179       282.179       282.178       282.178       282.168
         33.8       282.157       282.157       282.157       282.156       282.147
         33.9       282.135       282.135       282.135       282.134       282.125
           34       282.113       282.113       282.113       282.112       282.103
         34.1       282.091       282.091       282.091       282.091       282.079
         34.2       282.069       282.069       282.069       282.069        282.06
         34.3       282.048       282.047       282.047       282.047       282.038
         34.4       282.025       282.026       282.025       282.025       282.015
         34.5       282.004       282.004       282.004       282.003       281.995
         34.6       281.982       281.982       281.982       281.981       281.972
         34.7        281.96        281.96        281.96       281.959        281.95
         34.8       281.938       281.938       281.938       281.937       281.926
         34.9       281.916       281.916       281.916       281.915       281.907
           35       281.894       281.894       281.894       281.893       281.884
         35.1       281.872       281.872       281.872       281.871       281.862
         35.2        281.85        281.85        281.85       281.849       281.838
         35.3       281.828       281.828       281.828       281.827       281.819