# Probe 0 (1 0 0)
# Probe 1 (10 0 0)
# Probe 2 (20 0 0)
# Probe 3 (30 0 0)
# Probe 4 (40 0 0)
#       Probe             0             1             2             3             4
#        Time
            0       289.208       289.208       289.208       289.208       289.208
          0.1       289.208       289.208       289.208       289.208        289.03
          0.2       289.208       289.208       289.208       289.041       289.029
          0.3       289.207       289.208       289.208       289.038       289.039
          0.4       289.207       289.207       289.055       289.038       289.039
          0.5       289.207       289.207       289.049       289.036       289.044
          0.6       289.207       289.048       289.046       289.035       289.042
          0.7       289.201       289.048       289.045       289.036       289.045
          0.8         288.9       289.043       289.044       289.036       289.047
          0.9       288.903       289.027       289.038       289.032        289.05
            1       288.903       288.905       289.037        289.03       289.025
          1.1       288.902       288.905       288.909       289.029        289.02
          1.2         288.9       288.903       288.902       289.028       289.016
          1.3       288.899       288.901       288.902        288.88       289.004
          1.4       288.899       288.901       288.901       288.881       288.987
          1.5       288.898         288.9       288.897       288.878       288.696
          1.6       288.898       288.896        288.89       288.849       288.708
          1.7       288.895       288.891       288.877       288.752       288.711
          1.8       288.889        288.88       288.781       288.751       288.721
          1.9       288.881       288.868       288.754       288.749       288.722
            2       288.862       288.752       288.751       288.747       288.723
          2.1       288.815       288.746       288.749       288.744       288.726
          2.2       288.614       288.732       288.746       288.742       288.727
          2.3       288.613       288.677       288.737       288.741       288.727
          2.4       288.612       288.608       288.724        288.74       288.724
          2.5        288.61       288.608       288.608       288.729       288.721
          2.6       288.607       288.607       288.607        288.71       288.715
          2.7       288.604       288.606       288.603         288.6       288.684
          2.8       288.603       288.602       288.601       288.591        288.56
          2.9       288.601       288.599       288.597       288.578       288.416
            3       288.598       288.597       288.586        288.47       288.422
          3.1       288.594       288.591       288.568       288.463       288.427
          3.2        288.59       288.577       288.464       288.463       288.429
          3.3       288.572       288.494       288.462       288.462        288.43
          3.4       288.546       288.455        288.46       288.461       288.431
          3.5       288.329       288.445       288.458        288.46       288.434
          3.6        288.32       288.423       288.452       288.458       288.432
          3.7       288.321       288.322        288.44       288.453       288.434
          3.8       288.319       288.321       288.372       288.442       288.434
          3.9       288.319       288.321        288.32       288.425       288.426
            4       288.318        288.32       288.318        288.31       288.401
          4.1       288.318       288.316       288.313       288.306       288.331
          4.2       288.316       288.313       288.308       288.291       288.136
          4.3        288.31        288.31       288.299       288.222       288.139
          4.4       288.304       288.304        288.28       288.177        288.14
          4.5         288.3       288.287       288.179       288.177       288.142
          4.6       288.285        288.25       288.177       288.178       288.144
          4.7       288.255       288.166       288.176       288.176       288.141
          4.8       288.095        288.16       288.171       288.175       288.148
          4.9       288.037       288.138       288.166       288.172       288.148
            5       288.037       288.044       288.153       288.166       288.151
          5.1       288.036       288.043         288.1       288.158       288.147
          5.2       288.036        288.04       288.038       288.134       288.138
          5.3       288.035       288.037       288.035       288.038       288.121
          5.4       288.034       288.033        288.03       288.023       288.051
          5.5       288.031       288.029       288.025       288.005       287.882
          5.6       288.026       288.023       288.014       287.923       287.883
          5.7        288.02       288.016        287.99         287.9       287.884
          5.8       288.012       288.001       287.902       287.899       287.885
          5.9       287.999       287.958       287.896       287.898       287.884
            6       287.961       287.888       287.895       287.896        287.88
          6.1       287.789       287.879       287.891       287.894        287.88
          6.2       287.768       287.853       287.884        287.89       287.877
          6.3       287.768        287.77       287.865       287.885       287.872
          6.4       287.768       287.768       287.787       287.874       287.865
          6.5       287.765       287.764       287.762       287.845       287.854
          6.6       287.761        287.76       287.757        287.75       287.831
          6.7       287.756       287.756       287.752       287.743       287.735
          6.8       287.752        287.75       287.745        287.72       287.616
          6.9       287.745       287.744       287.731       287.626       287.612
            7       287.738       287.734         287.7       287.626       287.608
          7.1       287.729       287.712       287.623       287.625       287.612
          7.2       287.709       287.649       287.621       287.624        287.61
          7.3       287.658        287.61       287.619       287.622       287.607
          7.4        287.49       287.597       287.615       287.618       287.605
          7.5       287.492       287.556       287.604       287.614       287.601
          7.6       287.491       287.499       287.577       287.606       287.596
          7.7       287.491       287.496        287.49       287.589       287.583
          7.8        287.49       287.492       287.489       287.547        287.57
          7.9       287.487       287.487       287.484       287.473       287.533
            8       287.483        287.48       287.477       287.463       287.352
          8.1       287.476       287.474       287.466       287.432       287.338
          8.2       287.469       287.467       287.445       287.355       287.343
          8.3       287.461       287.453       287.385       287.354       287.337
          8.4       287.448       287.422        287.35       287.354       287.341
          8.5       287.417       287.341       287.349       287.352       287.339
          8.6       287.333       287.334       287.347        287.35       287.336
          8.7       287.227       287.308       287.341       287.346       287.333
          8.8       287.227       287.231       287.325        287.34       287.328
          8.9       287.227       287.231       287.291       287.329       287.322
            9       287.226       287.226       287.223       287.298       287.309
          9.1       287.223       287.221       287.219       287.219       287.285
          9.2       287.218       287.216       287.212       287.203       287.228
          9.3       287.211        287.21       287.204       287.176       287.079
          9.4       287.204       287.203       287.189       287.106       287.075
          9.5       287.196       287.191       287.157        287.09       287.072
          9.6       287.187       287.169       287.086        287.09       287.076
          9.7       287.166       287.104       287.086       287.089       287.076
          9.8        287.11       287.075       287.084       287.087       287.073
          9.9       286.972       287.059       287.079       287.084       287.067
           10       286.971       287.026       287.068       287.079       287.064
         10.1        286.97       286.972       287.035       287.071       287.061
         10.2       286.969       286.968       286.965        287.05       287.051
         10.3       286.964       286.962        286.96        287.01       287.031
         10.4       286.958       286.958       286.954       286.946       286.979
         10.5       286.952        286.95       286.947       286.927       286.817
         10.6       286.945       286.943       286.933       286.894       286.819
         10.7       286.937       286.934       286.906       286.832        286.82
         10.8       286.928       286.916       286.831       286.831        286.82
         10.9       286.912       286.882       286.828       286.831        286.82
           11       286.866       286.818       286.826       286.829       286.817
         11.1       286.756       286.807       286.823       286.826       286.812
         11.2       286.714       286.777       286.814       286.822        286.81
         11.3       286.715       286.717       286.791       286.815       286.805
         11.4       286.714       286.715       286.731       286.799       286.793
         11.5       286.711       286.709       286.706        286.76       286.779
         11.6       286.705       286.703         286.7       286.692       286.739
         11.7       286.697       286.696       286.691       286.678       286.649
         11.8        286.69       286.689       286.681       286.643        286.57
         11.9       286.682       286.679       286.657        286.58       286.566
           12       286.672       286.664       286.619       286.579       286.566
         12.1       286.659        286.63       286.574       286.579       286.567
         12.2       286.619       286.566       286.574       286.577       286.565
         12.3       286.546       286.558       286.571       286.574       286.562
         12.4       286.465       286.528       286.563        286.57       286.556
         12.5       286.465       286.468       286.542       286.563       286.553
         12.6       286.465       286.466       286.506       286.549       286.545
         12.7       286.461        286.46       286.457       286.513       286.529
         12.8       286.455       286.453        286.45       286.442       286.493
         12.9       286.447       286.447       286.442        286.43       286.429
           13        286.44       286.438       286.432       286.397       286.324
         13.1       286.432       286.429       286.408       286.334       286.318
         13.2       286.422       286.414       286.374       286.331       286.319
         13.3       286.409       286.382       286.328       286.331       286.319
         13.4       286.371        286.32       286.326       286.329       286.317
         13.5       286.307       286.311       286.323       286.326       286.313
         13.6       286.224       286.283       286.315       286.322        286.31
         13.7       286.223       286.224       286.295       286.315       286.302
         13.8       286.222       286.221       286.261         286.3       286.296
         13.9       286.216       286.215       286.213       286.266        286.28
           14       286.209       286.208       286.205       286.196       286.243
         14.1       286.201         286.2       286.197       286.184       286.178
         14.2       286.194       286.192       286.185       286.152       286.084
         14.3       286.185       286.182       286.161       286.091       286.081
         14.4       286.175       286.166       286.127       286.089       286.077
         14.5       286.161       286.136       286.085       286.088       286.076
         14.6       286.122       286.077       286.083       286.086       286.074
         14.7       286.054       286.066       286.079       286.082       286.067
         14.8       285.984       286.039       286.071       286.077       286.066
         14.9       285.984       285.983       286.047        286.07       286.057
           15       285.982        285.98       286.012       286.053       286.051
         15.1       285.975       285.974       285.971       286.016       286.033
         15.2       285.967       285.966       285.963       285.956        285.99
         15.3       285.958       285.958       285.954       285.939       285.921
         15.4        285.95       285.948       285.941       285.908       285.847
         15.5       285.941       285.938       285.915       285.854       285.838
         15.6        285.93       285.919       285.876        285.85       285.839
         15.7       285.914       285.889       285.846       285.848       285.834
         15.8        285.87       285.836       285.843       285.846       285.834
         15.9       285.789       285.822       285.838       285.842       285.829
           16       285.749       285.793       285.828       285.836       285.826
         16.1       285.748       285.747       285.801       285.827       285.815
         16.2       285.744       285.742       285.754       285.805       285.807
         16.3       285.736       285.735       285.732       285.768       285.784
         16.4       285.727       285.726       285.724       285.716       285.737
         16.5       285.718       285.717       285.713       285.695       285.644
         16.6       285.709       285.707       285.698       285.662       285.611
         16.7       285.699       285.695       285.668       285.618       285.607
         16.8       285.688       285.673       285.617       285.614       285.604
         16.9       285.666        285.64        285.61       285.612       285.601
           17       285.616       285.598       285.606       285.608       285.594
         17.1       285.527       285.579       285.599       285.603       285.592
         17.2       285.516       285.547       285.585       285.596       285.586
         17.3       285.513       285.512       285.556       285.584       285.574
         17.4       285.507       285.506       285.503       285.557       285.562
         17.5       285.498       285.498       285.495       285.514       285.536
         17.6       285.489       285.488       285.486       285.476       285.481
         17.7       285.479       285.478       285.473       285.449       285.388
         17.8       285.469       285.467       285.453       285.408       285.376
         17.9       285.459       285.452       285.422       285.384       285.374
           18       285.445       285.426        285.38       285.381       285.368
         18.1       285.413        285.38       285.375       285.377       285.366
         18.2       285.358       285.359        285.37       285.372       285.361
         18.3       285.289       285.334        285.36       285.366       285.355
         18.4       285.285       285.289        285.34       285.357       285.348
         18.5        285.28       285.279       285.306        285.34       285.338
         18.6       285.271        285.27       285.269       285.307        285.32
         18.7       285.261       285.261       285.259       285.254       285.279
         18.8       285.252       285.251       285.248       285.234       285.215
         18.9       285.241        285.24       285.233       285.203       285.155
           19       285.231       285.227       285.206       285.159       285.147
         19.1       285.219       285.208       285.167       285.152       285.139
         19.2       285.199       285.177       285.147       285.148       285.138
         19.3       285.156       285.136       285.141       285.143       285.132
         19.4       285.081       285.117       285.134       285.137       285.125
         19.5       285.059       285.087        285.12       285.129       285.119
         19.6       285.053       285.053       285.092       285.117       285.111
         19.7       285.046       285.045       285.047       285.091       285.095
         19.8       285.036       285.035       285.033       285.051       285.068
         19.9       285.025       285.025       285.023       285.014       285.016
           20       285.015       285.014       285.009       284.988       284.941
         20.1       285.004       285.002       284.989       284.949       284.923
         20.2       284.992       284.986       284.957       284.927       284.916
         20.3       284.977        284.96       284.921       284.921        284.91
         20.4       284.945       284.918       284.914       284.916       284.906
         20.5       284.889       284.897       284.907       284.909         284.9
         20.6       284.836       284.872       284.896       284.902       284.892
         20.7       284.828       284.833       284.874       284.891       284.883
         20.8       284.821       284.821       284.838       284.872        284.87
         20.9       284.811       284.811        284.81       284.839       284.849
           21         284.8         284.8       284.798       284.794       284.808
         21.1       284.789       284.789       284.785        284.77        284.74
         21.2       284.778       284.776       284.768       284.738         284.7
         21.3       284.766       284.762        284.74       284.704        284.69
         21.4       284.752        284.74       284.702       284.696       284.686
         21.5       284.728       284.706       284.689        284.69        284.68
         21.6       284.682       284.675       284.681       284.683       284.673
         21.7       284.619       284.653       284.671       284.675       284.666
         21.8       284.605       284.619       284.653       284.665       284.657
         21.9       284.597       284.597       284.623       284.649       284.645
           22       284.587       284.587       284.587        284.62       284.627
         22.1       284.576       284.576       284.574       284.577       284.593
         22.2       284.564       284.564       284.561       284.551       284.538
         22.3       284.553       284.551       284.545       284.521       284.484
         22.4        284.54       284.537        284.52       284.485       284.468
         22.5       284.527       284.518       284.486       284.472       284.462
         22.6       284.506       284.488       284.465       284.465       284.455
         22.7       284.466       284.453       284.456       284.458       284.448
         22.8       284.407       284.432       284.446       284.449        284.44
         22.9       284.382       284.402        284.43       284.439       284.431
           23       284.374       284.375       284.403       284.424       284.419
         23.1       284.364       284.363       284.367       284.399       284.399
         23.2       284.352       284.352        284.35        284.36       284.373
         23.3        284.34       284.339       284.337       284.329       284.319
         23.4       284.328       284.327       284.321       284.301       284.263
         23.5       284.315       284.312       284.298       284.266       284.248
         23.6       284.301       284.294       284.266       284.249       284.239
         23.7       284.282       284.266       284.242       284.241       284.229
         23.8       284.246       284.232       284.232       284.233        284.22
         23.9       284.192       284.209       284.221       284.224       284.212
           24       284.161       284.181       284.206       284.214       284.202
         24.1        284.15       284.153        284.18       284.199       284.192
         24.2        284.14        284.14       284.146       284.175       284.175
         24.3       284.128       284.128       284.127       284.138       284.147
         24.4       284.115       284.115       284.113       284.106       284.101
         24.5       284.103       284.102       284.097       284.079       284.048
         24.6       284.089       284.087       284.075       284.046       284.024
         24.7       284.075       284.068       284.044       284.026       284.014
         24.8       284.056       284.042       284.019       284.017       284.005
         24.9       284.022       284.009       284.007       284.008       283.996
           25       283.972       283.986       283.996       283.999       283.987
         25.1        283.94       283.958        283.98       283.988       283.977
         25.2       283.927       283.931       283.955       283.973       283.965
         25.3       283.916       283.916       283.923       283.949       283.949
         25.4       283.903       283.903       283.903       283.914       283.921
         25.5        283.89        283.89       283.888       283.882       283.877
         25.6       283.877       283.876       283.872       283.855       283.828
         25.7       283.864       283.861       283.849       283.824       283.805
         25.8       283.849       283.842        283.82       283.804       283.793
         25.9       283.828       283.815       283.796       283.793       283.784
           26       283.794       283.785       283.783       283.784       283.774
         26.1       283.748        283.76       283.771       283.773       283.764
         26.2       283.718       283.733       283.754       283.761       283.753
         26.3       283.704       283.708       283.729       283.745       283.739
         26.4       283.692       283.692       283.699       283.721       283.721
         26.5       283.679       283.679       283.678       283.688       283.693
         26.6       283.665       283.665       283.663       283.657       283.648
         26.7       283.651        283.65       283.645       283.629       283.604
         26.8       283.637       283.634       283.622         283.6       283.583
         26.9       283.621       283.614       283.594       283.581        283.57
           27       283.599       283.587       283.572       283.569       283.559
         27.1       283.564       283.559       283.558       283.559       283.549
         27.2       283.522       283.534       283.545       283.548       283.538
         27.3       283.495       283.507       283.526       283.534       283.524
         27.4        283.48       283.484         283.5       283.517       283.511
         27.5       283.467       283.467       283.473       283.491       283.492
         27.6       283.453       283.453       283.453       283.459        283.46
         27.7       283.439       283.439       283.436        283.43       283.418
         27.8       283.425       283.424       283.417       283.401       283.378
         27.9        283.41       283.406       283.394       283.375       283.359
           28       283.392       283.385       283.367       283.357       283.346
         28.1       283.367       283.358       283.347       283.345       283.335
         28.2       283.332       283.331       283.332       283.333       283.324
         28.3       283.296       283.305       283.317       283.321       283.313
         28.4       283.271        283.28       283.297       283.306         283.3
         28.5       283.256       283.259       283.271       283.286       283.283
         28.6       283.242       283.242       283.246       283.259       283.257
         28.7       283.227       283.227       283.227       283.229       283.224
         28.8       283.212       283.212       283.208         283.2       283.186
         28.9       283.197       283.195       283.188       283.173       283.157
           29       283.181       283.176       283.164       283.151       283.137
         29.1        283.16       283.153       283.141       283.135       283.123
         29.2        283.13       283.127       283.123       283.123        283.11
         29.3       283.095       283.101       283.108       283.111       283.101
         29.4       283.073       283.076       283.086       283.095       283.087
         29.5       283.054       283.056       283.062       283.071       283.066
         29.6       283.037       283.038       283.041       283.045       283.036
         29.7        283.02        283.02        283.02       283.018       283.006
         29.8       283.003       283.002       282.998       282.994       282.983
         29.9       282.984       282.981       282.977       282.972       282.961
           30       282.961        282.96       282.957       282.953       282.942
         30.1       282.938       282.938       282.937       282.935       282.929
         30.2       282.915       282.916       282.916       282.917       282.906
         30.3       282.893       282.894       282.895       282.897       282.888
         30.4       282.871       282.872       282.874       282.876       282.868
         30.5       282.851       282.851       282.854       282.855       282.846
         30.6       282.831       282.832       282.832       282.832       282.823
         30.7       282.812       282.811       282.811        282.81       282.797
         30.8       282.792       282.791        282.79       282.788       282.778
         30.9       282.771        282.77       282.769       282.767       282.756
           31        282.75       282.749       282.748       282.746       282.736
         31.1       282.728       282.728       282.727       282.726       282.717
         31.2       282.706       282.706       282.706       282.706       282.696
         31.3       282.684       282.684       282.685       282.685       282.676
         31.4       282.663       282.663       282.664       282.665       282.654
         31.5       282.642       282.642       282.643       282.643       282.634
         31.6       282.621       282.621       282.622       282.622       282.613
         31.7       282.601       282.601         282.6         282.6        282.59
         31.8        282.58        282.58       282.579       282.578       282.566
         31.9       282.559       282.559       282.558       282.557       282.547
           32       282.538       282.538       282.537       282.536       282.524
         32.1       282.517       282.516       282.516       282.515       282.505
         32.2       282.495       282.495       282.495       282.494       282.482
         32.3       282.474       282.474       282.474       282.474       282.464
         32.4       282.452       282.452       282.453       282.453       282.442
         32.5       282.431       282.431       282.431       282.431       282.422
         32.6        282.41        282.41        282.41        282.41       282.401
         32.7       282.389       282.389       282.389       282.389        282.38
         32.8       282.368       282.368       282.367       282.367       282.357
         32.9       282.347       282.347       282.346       282.345       282.335
           33       282.326       282.326       282.325       282.324       282.315
         33.1       282.304       282.304       282.304       282.303       282.293
         33.2       282.283       282.283       282.282       282.282       282.271
         33.3       282.261       282.261       282.261       282.261       282.252
         33.4        282.24        282.24        282.24        282.24       282.231
         33.5       282.218       282.218       282.219       282.218       282.207
         33.6       282.197       282.197       282.197       282.197       282.188
         33.7       282.176       282.176       282.176       282.176       282.166
         33.8       282.155       282.155       282.154       282.154       282.142
         33.9       282.134       282.133       282.133       282.133       282.124
           34       282.112       282.112       282.112       282.111       282.101
         34.1       282.091       282.091        282.09        282.09       282.079
         34.2       282.069       282.069       282.069       282.068        282.06
         34.3       282.048       282.048       282.047       282.047       282.038
         34.4       282.026       282.026       282.026       282.026       282.016
         34.5       282.005       282.005       282.005       282.005       281.995
         34.6       281.983       281.983       281.983       281.983       281.974
         34.7       281.962       281.962       281.962       281.961       281.952
         34.8        281.94        281.94        281.94        281.94        281.93
         34.9       281.919       281.919       281.919       281.918       281.909
           35       281.898       281.898       281.897       281.897       281.888
         35.1       281.876       281.876       281.876       281.875       281.866
         35.2       281.855       281.854       281.854       281.854       281.844
         35.3       281.833       281.833       281.833       281.832       281.821