# Probe 0 (1 0 0)
# Probe 1 (10 0 0)
# Probe 2 (20 0 0)
# Probe 3 (30 0 0)
# Probe 4 (40 0 0)
#       Probe             0             1             2             3             4
#        Time
            0             (0 0 0)             (0 0 0)             (0 0 0)             (0 0 0)             (0 0 0)
          0.1             (9.64557e-13 0 0)             (-6.16148e-13 0 0)             (0.00221331 0 0)             (0.00252575 0 0)             (0.444981 0 0)
          0.2             (0.00239842 0 0)             (0.00246089 0 0)             (0.00248323 0 0)             (0.444648 0 0)             (0.453405 0 0)
          0.3             (6.88679e-05 0 0)             (0.00246575 0 0)             (0.00268972 0 0)             (0.445724 0 0)             (0.452561 0 0)
          0.4             (-4.02522e-05 0 0)             (2.39244e-06 0 0)             (0.444978 0 0)             (0.45935 0 0)             (0.45239 0 0)
          0.5             (3.17051e-05 0 0)             (0.000292325 0 0)             (0.461491 0 0)             (0.453941 0 0)             (0.450574 0 0)
          0.6             (9.25763e-05 0 0)             (0.450324 0 0)             (0.445993 0 0)             (0.455892 0 0)             (0.451542 0 0)
          0.7             (0.0224098 0 0)             (0.457452 0 0)             (0.460946 0 0)             (0.442991 0 0)             (0.449893 0 0)
          0.8             (0.00874706 0 0)             (0.426955 0 0)             (0.451033 0 0)             (0.446461 0 0)             (0.448358 0 0)
          0.9             (0.00441168 0 0)             (0.371757 0 0)             (0.425703 0 0)             (0.437268 0 0)             (0.450341 0 0)
            1             (-0.00139794 0 0)             (0.00568273 0 0)             (0.406608 0 0)             (0.435391 0 0)             (0.452289 0 0)
          1.1             (-0.00306476 0 0)             (0.001108 0 0)             (0.0212052 0 0)             (0.430814 0 0)             (0.457618 0 0)
          1.2             (0.00273201 0 0)             (0.00944597 0 0)             (0.0137605 0 0)             (0.415605 0 0)             (0.450371 0 0)
          1.3             (0.000101093 0 0)             (0.00488653 0 0)             (0.010281 0 0)             (0.0237343 0 0)             (0.450072 0 0)
          1.4             (0.000113004 0 0)             (0.00442445 0 0)             (0.0128516 0 0)             (0.0181745 0 0)             (0.450028 0 0)
          1.5             (6.3502e-05 0 0)             (0.00611785 0 0)             (0.0195137 0 0)             (0.0486766 0 0)             (0.476635 0 0)
          1.6             (-7.39003e-05 0 0)             (0.0131445 0 0)             (0.0368241 0 0)             (0.154581 0 0)             (0.453744 0 0)
          1.7             (0.000115007 0 0)             (0.021458 0 0)             (0.0748229 0 0)             (0.46694 0 0)             (0.4795 0 0)
          1.8             (0.000442675 0 0)             (0.0435087 0 0)             (0.385053 0 0)             (0.452264 0 0)             (0.451708 0 0)
          1.9             (0.00545389 0 0)             (0.0741686 0 0)             (0.4377 0 0)             (0.454705 0 0)             (0.449545 0 0)
            2             (0.00467539 0 0)             (0.42852 0 0)             (0.439758 0 0)             (0.445469 0 0)             (0.451779 0 0)
          2.1             (0.0735639 0 0)             (0.414751 0 0)             (0.436196 0 0)             (0.44624 0 0)             (0.451451 0 0)
          2.2             (0.00741934 0 0)             (0.375223 0 0)             (0.432371 0 0)             (0.445991 0 0)             (0.451581 0 0)
          2.3             (0.00145752 0 0)             (0.212007 0 0)             (0.412548 0 0)             (0.444205 0 0)             (0.450594 0 0)
          2.4             (0.000997025 0 0)             (0.0090084 0 0)             (0.373533 0 0)             (0.43689 0 0)             (0.450481 0 0)
          2.5             (0.000182122 0 0)             (0.011724 0 0)             (0.0165206 0 0)             (0.411775 0 0)             (0.451898 0 0)
          2.6             (0.000521758 0 0)             (0.00933005 0 0)             (0.0143558 0 0)             (0.360759 0 0)             (0.449157 0 0)
          2.7             (-0.000111628 0 0)             (0.00883678 0 0)             (0.0217024 0 0)             (0.0252496 0 0)             (0.485762 0 0)
          2.8             (9.57576e-06 0 0)             (0.00868247 0 0)             (0.024396 0 0)             (0.0571476 0 0)             (0.44448 0 0)
          2.9             (0.00110088 0 0)             (0.0140169 0 0)             (0.0301754 0 0)             (0.0997229 0 0)             (0.474583 0 0)
            3             (0.000825837 0 0)             (0.0184953 0 0)             (0.0581421 0 0)             (0.43739 0 0)             (0.464434 0 0)
          3.1             (0.00106446 0 0)             (0.0296994 0 0)             (0.11329 0 0)             (0.449625 0 0)             (0.453057 0 0)
          3.2             (0.0034224 0 0)             (0.0625355 0 0)             (0.441784 0 0)             (0.447208 0 0)             (0.453131 0 0)
          3.3             (0.01775 0 0)             (0.308244 0 0)             (0.43798 0 0)             (0.447859 0 0)             (0.454584 0 0)
          3.4             (0.0177781 0 0)             (0.419055 0 0)             (0.4334 0 0)             (0.445802 0 0)             (0.457332 0 0)
          3.5             (0.0415525 0 0)             (0.379299 0 0)             (0.425365 0 0)             (0.445571 0 0)             (0.450114 0 0)
          3.6             (0.000767337 0 0)             (0.308489 0 0)             (0.411677 0 0)             (0.44254 0 0)             (0.462568 0 0)
          3.7             (0.00113973 0 0)             (0.00984239 0 0)             (0.376775 0 0)             (0.434926 0 0)             (0.45134 0 0)
          3.8             (0.000501572 0 0)             (0.0112288 0 0)             (0.170546 0 0)             (0.408114 0 0)             (0.452736 0 0)
          3.9             (8.31839e-05 0 0)             (0.00980061 0 0)             (0.0177424 0 0)             (0.37094 0 0)             (0.449891 0 0)
            4             (1.23394e-05 0 0)             (0.00764845 0 0)             (0.0264291 0 0)             (0.0327952 0 0)             (0.475405 0 0)
          4.1             (4.99991e-05 0 0)             (0.00892804 0 0)             (0.0320097 0 0)             (0.0557963 0 0)             (0.480314 0 0)
          4.2             (-0.000102785 0 0)             (0.0191093 0 0)             (0.040144 0 0)             (0.101092 0 0)             (0.458754 0 0)
          4.3             (0.000347367 0 0)             (0.0259147 0 0)             (0.0631495 0 0)             (0.321599 0 0)             (0.454876 0 0)
          4.4             (0.00195449 0 0)             (0.0338208 0 0)             (0.121479 0 0)             (0.446418 0 0)             (0.45435 0 0)
          4.5             (0.00343081 0 0)             (0.063779 0 0)             (0.433409 0 0)             (0.449542 0 0)             (0.454158 0 0)
          4.6             (0.0132278 0 0)             (0.172943 0 0)             (0.433866 0 0)             (0.442136 0 0)             (0.455107 0 0)
          4.7             (0.0196446 0 0)             (0.409191 0 0)             (0.426891 0 0)             (0.442835 0 0)             (0.482889 0 0)
          4.8             (0.124992 0 0)             (0.376344 0 0)             (0.416669 0 0)             (0.441916 0 0)             (0.454692 0 0)
          4.9             (0.000860768 0 0)             (0.306798 0 0)             (0.402057 0 0)             (0.438558 0 0)             (0.465971 0 0)
            5             (0.00130909 0 0)             (0.0122114 0 0)             (0.366842 0 0)             (0.425269 0 0)             (0.454593 0 0)
          5.1             (0.000806162 0 0)             (0.0115794 0 0)             (0.208767 0 0)             (0.409726 0 0)             (0.451115 0 0)
          5.2             (0.000129821 0 0)             (0.013253 0 0)             (0.0270786 0 0)             (0.355471 0 0)             (0.454967 0 0)
          5.3             (0.000169925 0 0)             (0.014958 0 0)             (0.0325937 0 0)             (0.0860084 0 0)             (0.451165 0 0)
          5.4             (0.00221942 0 0)             (0.0189866 0 0)             (0.0397345 0 0)             (0.0763639 0 0)             (0.479888 0 0)
          5.5             (0.000469036 0 0)             (0.0228817 0 0)             (0.0532396 0 0)             (0.126554 0 0)             (0.455641 0 0)
          5.6             (0.00159508 0 0)             (0.030751 0 0)             (0.075108 0 0)             (0.375025 0 0)             (0.455297 0 0)
          5.7             (0.00390479 0 0)             (0.0416549 0 0)             (0.143342 0 0)             (0.447067 0 0)             (0.455588 0 0)
          5.8             (0.00369997 0 0)             (0.0754008 0 0)             (0.417354 0 0)             (0.444066 0 0)             (0.455324 0 0)
          5.9             (0.0110701 0 0)             (0.192467 0 0)             (0.423758 0 0)             (0.440441 0 0)             (0.45496 0 0)
            6             (0.0249727 0 0)             (0.387635 0 0)             (0.41462 0 0)             (0.438367 0 0)             (0.466075 0 0)
          6.1             (0.100766 0 0)             (0.354542 0 0)             (0.404229 0 0)             (0.436556 0 0)             (0.455005 0 0)
          6.2             (0.00103667 0 0)             (0.27291 0 0)             (0.38703 0 0)             (0.430886 0 0)             (0.455585 0 0)
          6.3             (0.00160046 0 0)             (0.0160738 0 0)             (0.335632 0 0)             (0.422507 0 0)             (0.45475 0 0)
          6.4             (0.000660036 0 0)             (0.0174615 0 0)             (0.095792 0 0)             (0.400164 0 0)             (0.454719 0 0)
          6.5             (0.00290658 0 0)             (0.0206193 0 0)             (0.0392409 0 0)             (0.331794 0 0)             (0.450125 0 0)
          6.6             (0.00271437 0 0)             (0.023365 0 0)             (0.045779 0 0)             (0.0701655 0 0)             (0.449498 0 0)
          6.7             (0.00151738 0 0)             (0.0268206 0 0)             (0.0551253 0 0)             (0.0992207 0 0)             (0.454787 0 0)
          6.8             (0.00238141 0 0)             (0.0306302 0 0)             (0.0688865 0 0)             (0.166457 0 0)             (0.456436 0 0)
          6.9             (0.00272522 0 0)             (0.0373395 0 0)             (0.100342 0 0)             (0.450376 0 0)             (0.46424 0 0)
            7             (0.00663628 0 0)             (0.0504544 0 0)             (0.182966 0 0)             (0.44403 0 0)             (0.479571 0 0)
          7.1             (0.00557566 0 0)             (0.10668 0 0)             (0.421665 0 0)             (0.440177 0 0)             (0.456457 0 0)
          7.2             (0.0184424 0 0)             (0.284321 0 0)             (0.413924 0 0)             (0.435508 0 0)             (0.453806 0 0)
          7.3             (0.0222689 0 0)             (0.365887 0 0)             (0.402708 0 0)             (0.434433 0 0)             (0.455748 0 0)
          7.4             (-0.00555737 0 0)             (0.31924 0 0)             (0.392494 0 0)             (0.430185 0 0)             (0.454833 0 0)
          7.5             (0.00122576 0 0)             (0.191853 0 0)             (0.366711 0 0)             (0.424667 0 0)             (0.454943 0 0)
          7.6             (0.00153952 0 0)             (0.0184636 0 0)             (0.289113 0 0)             (0.411065 0 0)             (0.456792 0 0)
          7.7             (-4.62359e-05 0 0)             (0.0245704 0 0)             (0.037557 0 0)             (0.377282 0 0)             (0.482022 0 0)
          7.8             (0.000656069 0 0)             (0.0241317 0 0)             (0.048944 0 0)             (0.270992 0 0)             (0.457388 0 0)
          7.9             (0.000765682 0 0)             (0.0269656 0 0)             (0.0580442 0 0)             (0.0843625 0 0)             (0.447119 0 0)
            8             (0.00060106 0 0)             (0.0299719 0 0)             (0.0673391 0 0)             (0.131086 0 0)             (0.464808 0 0)
          8.1             (0.00365754 0 0)             (0.0371093 0 0)             (0.0865659 0 0)             (0.218522 0 0)             (0.483868 0 0)
          8.2             (0.00352332 0 0)             (0.0483577 0 0)             (0.141457 0 0)             (0.446353 0 0)             (0.458169 0 0)
          8.3             (0.00615771 0 0)             (0.0737202 0 0)             (0.316496 0 0)             (0.440536 0 0)             (0.485032 0 0)
          8.4             (0.0120284 0 0)             (0.151446 0 0)             (0.413708 0 0)             (0.43971 0 0)             (0.454662 0 0)
          8.5             (0.0271526 0 0)             (0.378107 0 0)             (0.406725 0 0)             (0.432547 0 0)             (0.456858 0 0)
          8.6             (0.0910163 0 0)             (0.344655 0 0)             (0.394084 0 0)             (0.428008 0 0)             (0.461254 0 0)
          8.7             (0.00225465 0 0)             (0.256998 0 0)             (0.376741 0 0)             (0.42548 0 0)             (0.45526 0 0)
          8.8             (0.00174799 0 0)             (0.0173363 0 0)             (0.33658 0 0)             (0.417959 0 0)             (0.458104 0 0)
          8.9             (0.00148362 0 0)             (0.0220774 0 0)             (0.240697 0 0)             (0.396505 0 0)             (0.457053 0 0)
            9             (0.000877437 0 0)             (0.0237636 0 0)             (0.0515946 0 0)             (0.323525 0 0)             (0.453226 0 0)
          9.1             (0.0021948 0 0)             (0.0271106 0 0)             (0.0609038 0 0)             (0.113502 0 0)             (0.452069 0 0)
          9.2             (0.00394058 0 0)             (0.0332969 0 0)             (0.067207 0 0)             (0.121808 0 0)             (0.471908 0 0)
          9.3             (0.00426881 0 0)             (0.039371 0 0)             (0.0821893 0 0)             (0.188353 0 0)             (0.4594 0 0)
          9.4             (0.00545902 0 0)             (0.0447196 0 0)             (0.117876 0 0)             (0.397309 0 0)             (0.482257 0 0)
          9.5             (0.0052399 0 0)             (0.0633742 0 0)             (0.205983 0 0)             (0.440774 0 0)             (0.486065 0 0)
          9.6             (0.00743163 0 0)             (0.11659 0 0)             (0.411355 0 0)             (0.438604 0 0)             (0.465701 0 0)
          9.7             (0.0175266 0 0)             (0.30426 0 0)             (0.402708 0 0)             (0.433053 0 0)             (0.461046 0 0)
          9.8             (0.0223568 0 0)             (0.349099 0 0)             (0.392686 0 0)             (0.429308 0 0)             (0.470363 0 0)
          9.9             (0.0129742 0 0)             (0.291617 0 0)             (0.379053 0 0)             (0.42518 0 0)             (0.486526 0 0)
           10             (0.00246038 0 0)             (0.186965 0 0)             (0.351467 0 0)             (0.419618 0 0)             (0.475374 0 0)
         10.1             (0.00222907 0 0)             (0.0245686 0 0)             (0.256215 0 0)             (0.407361 0 0)             (0.454169 0 0)
         10.2             (0.00155964 0 0)             (0.0271466 0 0)             (0.0542929 0 0)             (0.363805 0 0)             (0.458175 0 0)
         10.3             (0.00345916 0 0)             (0.0299178 0 0)             (0.0653757 0 0)             (0.272403 0 0)             (0.461248 0 0)
         10.4             (0.00428988 0 0)             (0.0353521 0 0)             (0.0713088 0 0)             (0.116749 0 0)             (0.45985 0 0)
         10.5             (0.00365734 0 0)             (0.040662 0 0)             (0.0843392 0 0)             (0.167084 0 0)             (0.460769 0 0)
         10.6             (0.00479566 0 0)             (0.0461113 0 0)             (0.108666 0 0)             (0.256281 0 0)             (0.460697 0 0)
         10.7             (0.00460225 0 0)             (0.0585909 0 0)             (0.180481 0 0)             (0.442505 0 0)             (0.457149 0 0)
         10.8             (0.00701084 0 0)             (0.0945483 0 0)             (0.395659 0 0)             (0.437626 0 0)             (0.460019 0 0)
         10.9             (0.0151175 0 0)             (0.181237 0 0)             (0.400843 0 0)             (0.433218 0 0)             (0.460013 0 0)
           11             (0.0335259 0 0)             (0.349351 0 0)             (0.392478 0 0)             (0.425834 0 0)             (0.467178 0 0)
         11.1             (0.122313 0 0)             (0.308788 0 0)             (0.379286 0 0)             (0.422545 0 0)             (0.469951 0 0)
         11.2             (0.00282726 0 0)             (0.209255 0 0)             (0.355625 0 0)             (0.41835 0 0)             (0.457517 0 0)
         11.3             (0.00261189 0 0)             (0.0255476 0 0)             (0.291831 0 0)             (0.408745 0 0)             (0.461269 0 0)
         11.4             (0.00178877 0 0)             (0.0286921 0 0)             (0.117711 0 0)             (0.379958 0 0)             (0.484489 0 0)
         11.5             (0.00330746 0 0)             (0.0322785 0 0)             (0.0685838 0 0)             (0.28975 0 0)             (0.459229 0 0)
         11.6             (0.00484725 0 0)             (0.0385309 0 0)             (0.0746188 0 0)             (0.11858 0 0)             (0.464641 0 0)
         11.7             (0.00417138 0 0)             (0.0447303 0 0)             (0.0856163 0 0)             (0.16144 0 0)             (0.491846 0 0)
         11.8             (0.0046793 0 0)             (0.0483906 0 0)             (0.110317 0 0)             (0.253534 0 0)             (0.463644 0 0)
         11.9             (0.00474354 0 0)             (0.0570215 0 0)             (0.169829 0 0)             (0.440462 0 0)             (0.472174 0 0)
           12             (0.00679108 0 0)             (0.085648 0 0)             (0.270573 0 0)             (0.437569 0 0)             (0.45903 0 0)
         12.1             (0.015087 0 0)             (0.174382 0 0)             (0.397237 0 0)             (0.431556 0 0)             (0.458683 0 0)
         12.2             (0.0326385 0 0)             (0.346035 0 0)             (0.386928 0 0)             (0.426056 0 0)             (0.461844 0 0)
         12.3             (0.0705588 0 0)             (0.308414 0 0)             (0.375397 0 0)             (0.422035 0 0)             (0.461255 0 0)
         12.4             (0.00250127 0 0)             (0.212808 0 0)             (0.356624 0 0)             (0.418679 0 0)             (0.469038 0 0)
         12.5             (0.00317515 0 0)             (0.0299124 0 0)             (0.295709 0 0)             (0.408892 0 0)             (0.457819 0 0)
         12.6             (0.00223887 0 0)             (0.032506 0 0)             (0.200816 0 0)             (0.383213 0 0)             (0.462007 0 0)
         12.7             (0.0024962 0 0)             (0.0348254 0 0)             (0.0749744 0 0)             (0.299286 0 0)             (0.458407 0 0)
         12.8             (0.00447646 0 0)             (0.0415469 0 0)             (0.0807396 0 0)             (0.124157 0 0)             (0.464633 0 0)
         12.9             (0.0043191 0 0)             (0.0455307 0 0)             (0.0909567 0 0)             (0.163543 0 0)             (0.454116 0 0)
           13             (0.00488167 0 0)             (0.0516807 0 0)             (0.111701 0 0)             (0.251213 0 0)             (0.462222 0 0)
         13.1             (0.00513447 0 0)             (0.0586349 0 0)             (0.167135 0 0)             (0.435159 0 0)             (0.485137 0 0)
         13.2             (0.00803274 0 0)             (0.088112 0 0)             (0.260896 0 0)             (0.433603 0 0)             (0.458738 0 0)
         13.3             (0.0157396 0 0)             (0.168329 0 0)             (0.389906 0 0)             (0.42975 0 0)             (0.46313 0 0)
         13.4             (0.0364253 0 0)             (0.334566 0 0)             (0.383133 0 0)             (0.424942 0 0)             (0.462617 0 0)
         13.5             (0.0505718 0 0)             (0.301258 0 0)             (0.370621 0 0)             (0.42208 0 0)             (0.472033 0 0)
         13.6             (0.0032318 0 0)             (0.215884 0 0)             (0.35263 0 0)             (0.415926 0 0)             (0.463144 0 0)
         13.7             (0.00284965 0 0)             (0.0332493 0 0)             (0.296804 0 0)             (0.408108 0 0)             (0.492017 0 0)
         13.8             (0.00316132 0 0)             (0.0367786 0 0)             (0.206707 0 0)             (0.380312 0 0)             (0.46215 0 0)
         13.9             (0.00319405 0 0)             (0.040844 0 0)             (0.0815662 0 0)             (0.304825 0 0)             (0.458368 0 0)
           14             (0.00507249 0 0)             (0.0450866 0 0)             (0.0893514 0 0)             (0.133973 0 0)             (0.465938 0 0)
         14.1             (0.00504526 0 0)             (0.0476972 0 0)             (0.0990858 0 0)             (0.174554 0 0)             (0.49801 0 0)
         14.2             (0.00498299 0 0)             (0.0540672 0 0)             (0.118519 0 0)             (0.259623 0 0)             (0.460979 0 0)
         14.3             (0.00665026 0 0)             (0.0629779 0 0)             (0.176214 0 0)             (0.434592 0 0)             (0.464489 0 0)
         14.4             (0.00717271 0 0)             (0.0928092 0 0)             (0.266602 0 0)             (0.429978 0 0)             (0.463944 0 0)
         14.5             (0.01576 0 0)             (0.166983 0 0)             (0.383837 0 0)             (0.426365 0 0)             (0.462905 0 0)
         14.6             (0.0339213 0 0)             (0.323163 0 0)             (0.374818 0 0)             (0.422392 0 0)             (0.464589 0 0)
         14.7             (0.0592963 0 0)             (0.285701 0 0)             (0.363464 0 0)             (0.419086 0 0)             (0.489525 0 0)
         14.8             (0.00356333 0 0)             (0.203171 0 0)             (0.344504 0 0)             (0.414033 0 0)             (0.464234 0 0)
         14.9             (0.00308796 0 0)             (0.0370877 0 0)             (0.282427 0 0)             (0.404101 0 0)             (0.48697 0 0)
           15             (0.00416952 0 0)             (0.0415183 0 0)             (0.188436 0 0)             (0.373948 0 0)             (0.464994 0 0)
         15.1             (0.00481198 0 0)             (0.0461958 0 0)             (0.0904672 0 0)             (0.294211 0 0)             (0.464068 0 0)
         15.2             (0.00489434 0 0)             (0.0498382 0 0)             (0.0983951 0 0)             (0.152289 0 0)             (0.492197 0 0)
         15.3             (0.00523099 0 0)             (0.0532428 0 0)             (0.110127 0 0)             (0.193757 0 0)             (0.456373 0 0)
         15.4             (0.00538626 0 0)             (0.0583244 0 0)             (0.129686 0 0)             (0.278126 0 0)             (0.465952 0 0)
         15.5             (0.00717243 0 0)             (0.0685125 0 0)             (0.191777 0 0)             (0.430012 0 0)             (0.496059 0 0)
         15.6             (0.00843189 0 0)             (0.104316 0 0)             (0.29551 0 0)             (0.426441 0 0)             (0.463785 0 0)
         15.7             (0.0147078 0 0)             (0.18022 0 0)             (0.374858 0 0)             (0.422145 0 0)             (0.490719 0 0)
         15.8             (0.0332971 0 0)             (0.311119 0 0)             (0.367217 0 0)             (0.418964 0 0)             (0.462579 0 0)
         15.9             (0.0851361 0 0)             (0.263654 0 0)             (0.354862 0 0)             (0.416043 0 0)             (0.477962 0 0)
           16             (0.00344142 0 0)             (0.175863 0 0)             (0.332522 0 0)             (0.41035 0 0)             (0.463992 0 0)
         16.1             (0.00381114 0 0)             (0.0430254 0 0)             (0.262393 0 0)             (0.398882 0 0)             (0.487238 0 0)
         16.2             (0.00497895 0 0)             (0.0469173 0 0)             (0.135549 0 0)             (0.357042 0 0)             (0.465025 0 0)
         16.3             (0.00509341 0 0)             (0.0517971 0 0)             (0.0999438 0 0)             (0.281149 0 0)             (0.487048 0 0)
         16.4             (0.00519096 0 0)             (0.0540969 0 0)             (0.108578 0 0)             (0.17317 0 0)             (0.502559 0 0)
         16.5             (0.00571005 0 0)             (0.0576106 0 0)             (0.120527 0 0)             (0.221574 0 0)             (0.472411 0 0)
         16.6             (0.00618082 0 0)             (0.0635224 0 0)             (0.146265 0 0)             (0.308124 0 0)             (0.466091 0 0)
         16.7             (0.00668173 0 0)             (0.0774615 0 0)             (0.216676 0 0)             (0.42504 0 0)             (0.462705 0 0)
         16.8             (0.00909544 0 0)             (0.123863 0 0)             (0.360767 0 0)             (0.4225 0 0)             (0.466461 0 0)
         16.9             (0.0198617 0 0)             (0.202378 0 0)             (0.366506 0 0)             (0.418025 0 0)             (0.465145 0 0)
           17             (0.0280662 0 0)             (0.28825 0 0)             (0.357977 0 0)             (0.416011 0 0)             (0.489942 0 0)
         17.1             (0.0329077 0 0)             (0.234046 0 0)             (0.345455 0 0)             (0.412589 0 0)             (0.467557 0 0)
         17.2             (0.00445094 0 0)             (0.141621 0 0)             (0.313895 0 0)             (0.405994 0 0)             (0.46262 0 0)
         17.3             (0.00457088 0 0)             (0.0495375 0 0)             (0.240832 0 0)             (0.389869 0 0)             (0.494954 0 0)
         17.4             (0.00572475 0 0)             (0.0531358 0 0)             (0.10334 0 0)             (0.336216 0 0)             (0.489038 0 0)
         17.5             (0.0055134 0 0)             (0.0566168 0 0)             (0.110522 0 0)             (0.244053 0 0)             (0.4608 0 0)
         17.6             (0.0058094 0 0)             (0.0589886 0 0)             (0.11931 0 0)             (0.194503 0 0)             (0.47791 0 0)
         17.7             (0.00597718 0 0)             (0.0628073 0 0)             (0.133415 0 0)             (0.258543 0 0)             (0.464598 0 0)
         17.8             (0.00664864 0 0)             (0.0703017 0 0)             (0.172131 0 0)             (0.370808 0 0)             (0.48461 0 0)
         17.9             (0.00844071 0 0)             (0.0907749 0 0)             (0.24844 0 0)             (0.421057 0 0)             (0.468846 0 0)
           18             (0.012152 0 0)             (0.151504 0 0)             (0.361104 0 0)             (0.417851 0 0)             (0.480366 0 0)
         18.1             (0.0252183 0 0)             (0.264474 0 0)             (0.35731 0 0)             (0.414786 0 0)             (0.468266 0 0)
         18.2             (0.0384915 0 0)             (0.26539 0 0)             (0.347603 0 0)             (0.412525 0 0)             (0.466695 0 0)
         18.3             (0.00582079 0 0)             (0.195609 0 0)             (0.33154 0 0)             (0.408494 0 0)             (0.472883 0 0)
         18.4             (0.00489541 0 0)             (0.0660779 0 0)             (0.283439 0 0)             (0.399605 0 0)             (0.467684 0 0)
         18.5             (0.00528552 0 0)             (0.0553545 0 0)             (0.198115 0 0)             (0.372697 0 0)             (0.468741 0 0)
         18.6             (0.00588214 0 0)             (0.0586725 0 0)             (0.115842 0 0)             (0.308504 0 0)             (0.467511 0 0)
         18.7             (0.00607621 0 0)             (0.061651 0 0)             (0.121465 0 0)             (0.193235 0 0)             (0.467073 0 0)
         18.8             (0.00637002 0 0)             (0.0637408 0 0)             (0.131869 0 0)             (0.226412 0 0)             (0.458711 0 0)
         18.9             (0.00660008 0 0)             (0.0686951 0 0)             (0.151583 0 0)             (0.300621 0 0)             (0.469159 0 0)
           19             (0.00732513 0 0)             (0.0801592 0 0)             (0.208247 0 0)             (0.415795 0 0)             (0.465937 0 0)
         19.1             (0.00949024 0 0)             (0.11609 0 0)             (0.310868 0 0)             (0.417072 0 0)             (0.502518 0 0)
         19.2             (0.0171646 0 0)             (0.185059 0 0)             (0.353434 0 0)             (0.413726 0 0)             (0.469799 0 0)
         19.3             (0.0267455 0 0)             (0.270573 0 0)             (0.347255 0 0)             (0.411724 0 0)             (0.467311 0 0)
         19.4             (0.0455652 0 0)             (0.228223 0 0)             (0.336086 0 0)             (0.408849 0 0)             (0.481595 0 0)
         19.5             (0.00596039 0 0)             (0.146638 0 0)             (0.309358 0 0)             (0.403091 0 0)             (0.477697 0 0)