# Probe 0 (1 0 0)
# Probe 1 (10 0 0)
# Probe 2 (20 0 0)
# Probe 3 (30 0 0)
# Probe 4 (40 0 0)
#       Probe             0             1             2             3             4
#        Time
            0             (0 0 0)             (0 0 0)             (0 0 0)             (0 0 0)             (0 0 0)
          0.1             (1.15074e-12 0 0)             (6.14887e-13 0 0)             (0.00221292 0 0)             (0.00254593 0 0)             (0.476334 0 0)
          0.2             (0.00240444 0 0)             (0.0024605 0 0)             (0.00248203 0 0)             (0.450779 0 0)             (0.4498 0 0)
          0.3             (-0.000104344 0 0)             (0.0024672 0 0)             (0.00269436 0 0)             (0.45981 0 0)             (0.471896 0 0)
          0.4             (-2.82994e-06 0 0)             (9.14557e-05 0 0)             (0.418362 0 0)             (0.465406 0 0)             (0.453523 0 0)
          0.5             (7.98261e-05 0 0)             (0.00072676 0 0)             (0.445806 0 0)             (0.45059 0 0)             (0.451 0 0)
          0.6             (0.000116155 0 0)             (0.442098 0 0)             (0.459522 0 0)             (0.453559 0 0)             (0.451013 0 0)
          0.7             (0.0190947 0 0)             (0.451092 0 0)             (0.457737 0 0)             (0.44309 0 0)             (0.449455 0 0)
          0.8             (0.00870026 0 0)             (0.427259 0 0)             (0.454175 0 0)             (0.463694 0 0)             (0.447598 0 0)
          0.9             (0.00300367 0 0)             (0.369049 0 0)             (0.424358 0 0)             (0.433477 0 0)             (0.449301 0 0)
            1             (-0.000667013 0 0)             (-0.00128453 0 0)             (0.406767 0 0)             (0.428991 0 0)             (0.451118 0 0)
          1.1             (0.00188467 0 0)             (0.00583685 0 0)             (-0.013107 0 0)             (0.430563 0 0)             (0.450263 0 0)
          1.2             (0.00239498 0 0)             (0.00313427 0 0)             (0.0194624 0 0)             (0.404094 0 0)             (0.449782 0 0)
          1.3             (0.000343496 0 0)             (0.00668999 0 0)             (0.00785682 0 0)             (0.0174797 0 0)             (0.478554 0 0)
          1.4             (0.000113935 0 0)             (0.00276739 0 0)             (0.0169047 0 0)             (0.0282182 0 0)             (0.446486 0 0)
          1.5             (0.000285134 0 0)             (0.00676702 0 0)             (0.0271399 0 0)             (0.0557628 0 0)             (0.450472 0 0)
          1.6             (0.000642656 0 0)             (0.01472 0 0)             (0.0431972 0 0)             (0.108014 0 0)             (0.452329 0 0)
          1.7             (0.000630968 0 0)             (0.0290709 0 0)             (0.0680082 0 0)             (0.455295 0 0)             (0.450482 0 0)
          1.8             (0.000891976 0 0)             (0.0423218 0 0)             (0.441887 0 0)             (0.447 0 0)             (0.451955 0 0)
          1.9             (0.00107776 0 0)             (0.0606847 0 0)             (0.441271 0 0)             (0.449784 0 0)             (0.451399 0 0)
            2             (0.0154825 0 0)             (0.425 0 0)             (0.437336 0 0)             (0.450887 0 0)             (0.452479 0 0)
          2.1             (0.0296284 0 0)             (0.413641 0 0)             (0.43091 0 0)             (0.440043 0 0)             (0.45216 0 0)
          2.2             (0.0075089 0 0)             (0.38087 0 0)             (0.420464 0 0)             (0.44091 0 0)             (0.451626 0 0)
          2.3             (-0.00063967 0 0)             (0.259867 0 0)             (0.40774 0 0)             (0.437969 0 0)             (0.46743 0 0)
          2.4             (0.00235733 0 0)             (0.0109117 0 0)             (0.37573 0 0)             (0.431497 0 0)             (0.451543 0 0)
          2.5             (0.000154744 0 0)             (0.0076962 0 0)             (0.0203989 0 0)             (0.421394 0 0)             (0.458751 0 0)
          2.6             (-0.000184129 0 0)             (0.00622105 0 0)             (0.0202074 0 0)             (0.353499 0 0)             (0.477721 0 0)
          2.7             (0.000204893 0 0)             (0.011336 0 0)             (0.0205805 0 0)             (0.0305373 0 0)             (0.452396 0 0)
          2.8             (0.000445431 0 0)             (0.0124123 0 0)             (0.0266313 0 0)             (0.0551393 0 0)             (0.437763 0 0)
          2.9             (4.41242e-05 0 0)             (0.0103138 0 0)             (0.0419423 0 0)             (0.0991542 0 0)             (0.453335 0 0)
            3             (0.000447362 0 0)             (0.0180499 0 0)             (0.0616647 0 0)             (0.449031 0 0)             (0.45306 0 0)
          3.1             (0.00273754 0 0)             (0.0341847 0 0)             (0.115955 0 0)             (0.452359 0 0)             (0.458917 0 0)
          3.2             (0.00876807 0 0)             (0.0594364 0 0)             (0.435397 0 0)             (0.44435 0 0)             (0.452959 0 0)
          3.3             (0.00406874 0 0)             (0.185515 0 0)             (0.429407 0 0)             (0.444408 0 0)             (0.45111 0 0)
          3.4             (0.0184733 0 0)             (0.399903 0 0)             (0.426565 0 0)             (0.441829 0 0)             (0.453017 0 0)
          3.5             (0.165729 0 0)             (0.379121 0 0)             (0.418119 0 0)             (0.435324 0 0)             (0.450931 0 0)
          3.6             (0.00165707 0 0)             (0.305152 0 0)             (0.400935 0 0)             (0.431726 0 0)             (0.452589 0 0)
          3.7             (-0.000344255 0 0)             (0.0113717 0 0)             (0.371581 0 0)             (0.426786 0 0)             (0.453056 0 0)
          3.8             (0.000825599 0 0)             (0.0100259 0 0)             (0.232945 0 0)             (0.415611 0 0)             (0.48094 0 0)
          3.9             (0.000174856 0 0)             (0.00954193 0 0)             (0.0260569 0 0)             (0.375607 0 0)             (0.480957 0 0)
            4             (0.000145092 0 0)             (0.0139716 0 0)             (0.0345795 0 0)             (0.039612 0 0)             (0.449577 0 0)
          4.1             (0.000188388 0 0)             (0.0222475 0 0)             (0.0389238 0 0)             (0.0664547 0 0)             (0.452548 0 0)
          4.2             (0.000989382 0 0)             (0.0252104 0 0)             (0.053724 0 0)             (0.108464 0 0)             (0.453931 0 0)
          4.3             (0.000771842 0 0)             (0.0271863 0 0)             (0.0747436 0 0)             (0.315625 0 0)             (0.453672 0 0)
          4.4             (0.00256998 0 0)             (0.0386339 0 0)             (0.124114 0 0)             (0.450398 0 0)             (0.454113 0 0)
          4.5             (0.00655505 0 0)             (0.0686128 0 0)             (0.410464 0 0)             (0.445272 0 0)             (0.453929 0 0)
          4.6             (0.00641724 0 0)             (0.202538 0 0)             (0.424541 0 0)             (0.438582 0 0)             (0.453932 0 0)
          4.7             (0.0123185 0 0)             (0.387055 0 0)             (0.415881 0 0)             (0.437904 0 0)             (0.454399 0 0)
          4.8             (0.178786 0 0)             (0.36326 0 0)             (0.4091 0 0)             (0.434591 0 0)             (0.454109 0 0)
          4.9             (0.00127734 0 0)             (0.276336 0 0)             (0.388453 0 0)             (0.432586 0 0)             (0.477874 0 0)
            5             (0.00137233 0 0)             (0.0142755 0 0)             (0.362416 0 0)             (0.42148 0 0)             (0.450202 0 0)
          5.1             (0.000739421 0 0)             (0.0187298 0 0)             (0.171057 0 0)             (0.405712 0 0)             (0.451788 0 0)
          5.2             (0.000395221 0 0)             (0.017799 0 0)             (0.0371736 0 0)             (0.366228 0 0)             (0.482367 0 0)
          5.3             (0.000850886 0 0)             (0.0201315 0 0)             (0.0446979 0 0)             (0.144392 0 0)             (0.460648 0 0)
          5.4             (0.00128452 0 0)             (0.0235354 0 0)             (0.0488573 0 0)             (0.090647 0 0)             (0.448092 0 0)
          5.5             (0.0036805 0 0)             (0.0256658 0 0)             (0.0644683 0 0)             (0.129928 0 0)             (0.457296 0 0)
          5.6             (0.00214785 0 0)             (0.0346131 0 0)             (0.0854157 0 0)             (0.363187 0 0)             (0.453648 0 0)
          5.7             (0.00420628 0 0)             (0.0493258 0 0)             (0.147913 0 0)             (0.439446 0 0)             (0.45538 0 0)
          5.8             (0.00662338 0 0)             (0.0789784 0 0)             (0.395831 0 0)             (0.439104 0 0)             (0.455474 0 0)
          5.9             (0.0092527 0 0)             (0.248014 0 0)             (0.414797 0 0)             (0.436295 0 0)             (0.452256 0 0)
            6             (0.0258214 0 0)             (0.370901 0 0)             (0.407906 0 0)             (0.434721 0 0)             (0.455392 0 0)
          6.1             (0.0425455 0 0)             (0.340288 0 0)             (0.395556 0 0)             (0.433929 0 0)             (0.455695 0 0)
          6.2             (0.00232539 0 0)             (0.220978 0 0)             (0.378514 0 0)             (0.428965 0 0)             (0.45268 0 0)
          6.3             (0.00179988 0 0)             (0.020971 0 0)             (0.336103 0 0)             (0.415675 0 0)             (0.454982 0 0)
          6.4             (0.000657516 0 0)             (0.023134 0 0)             (0.0906338 0 0)             (0.396182 0 0)             (0.455303 0 0)
          6.5             (0.00302306 0 0)             (0.0256222 0 0)             (0.0502352 0 0)             (0.331664 0 0)             (0.475047 0 0)
          6.6             (0.00399616 0 0)             (0.0268481 0 0)             (0.0541115 0 0)             (0.0839125 0 0)             (0.454534 0 0)
          6.7             (0.00277186 0 0)             (0.0295469 0 0)             (0.0616974 0 0)             (0.115661 0 0)             (0.453 0 0)
          6.8             (0.00283346 0 0)             (0.0323193 0 0)             (0.0782898 0 0)             (0.168844 0 0)             (0.455753 0 0)
          6.9             (0.00375937 0 0)             (0.0431836 0 0)             (0.109131 0 0)             (0.430089 0 0)             (0.469037 0 0)
            7             (0.00678354 0 0)             (0.059596 0 0)             (0.234983 0 0)             (0.437423 0 0)             (0.482725 0 0)
          7.1             (0.00775818 0 0)             (0.10293 0 0)             (0.408821 0 0)             (0.432839 0 0)             (0.456512 0 0)
          7.2             (0.0166482 0 0)             (0.372866 0 0)             (0.404015 0 0)             (0.431765 0 0)             (0.457271 0 0)
          7.3             (0.0662548 0 0)             (0.350916 0 0)             (0.393755 0 0)             (0.431636 0 0)             (0.456748 0 0)
          7.4             (0.00279828 0 0)             (0.299141 0 0)             (0.382998 0 0)             (0.427526 0 0)             (0.468505 0 0)
          7.5             (0.00262334 0 0)             (0.0237849 0 0)             (0.361618 0 0)             (0.418283 0 0)             (0.454404 0 0)
          7.6             (0.00194954 0 0)             (0.026193 0 0)             (0.301489 0 0)             (0.405807 0 0)             (0.455113 0 0)
          7.7             (0.000427712 0 0)             (0.0256788 0 0)             (0.0517869 0 0)             (0.37124 0 0)             (0.476017 0 0)
          7.8             (0.00178528 0 0)             (0.0244729 0 0)             (0.0594391 0 0)             (0.167331 0 0)             (0.458809 0 0)
          7.9             (0.00374049 0 0)             (0.0298909 0 0)             (0.0640991 0 0)             (0.106162 0 0)             (0.477535 0 0)
            8             (0.0019114 0 0)             (0.034149 0 0)             (0.0757844 0 0)             (0.145026 0 0)             (0.448138 0 0)
          8.1             (0.00319294 0 0)             (0.0438491 0 0)             (0.09385 0 0)             (0.270246 0 0)             (0.454729 0 0)
          8.2             (0.00393971 0 0)             (0.0529905 0 0)             (0.146755 0 0)             (0.4409 0 0)             (0.453125 0 0)
          8.3             (0.00702653 0 0)             (0.0756438 0 0)             (0.415784 0 0)             (0.437632 0 0)             (0.469386 0 0)
          8.4             (0.0103893 0 0)             (0.154835 0 0)             (0.404094 0 0)             (0.433166 0 0)             (0.457717 0 0)
          8.5             (0.0224402 0 0)             (0.357814 0 0)             (0.396869 0 0)             (0.428424 0 0)             (0.457899 0 0)
          8.6             (0.105351 0 0)             (0.328773 0 0)             (0.384599 0 0)             (0.42384 0 0)             (0.457523 0 0)
          8.7             (0.00282595 0 0)             (0.260009 0 0)             (0.367328 0 0)             (0.420619 0 0)             (0.485708 0 0)
          8.8             (0.00235172 0 0)             (0.0248952 0 0)             (0.330006 0 0)             (0.41238 0 0)             (0.457218 0 0)
          8.9             (0.00155022 0 0)             (0.0267997 0 0)             (0.131799 0 0)             (0.395359 0 0)             (0.457961 0 0)
            9             (0.00133973 0 0)             (0.0296239 0 0)             (0.0643619 0 0)             (0.341089 0 0)             (0.479337 0 0)
          9.1             (0.00243527 0 0)             (0.0347151 0 0)             (0.0695788 0 0)             (0.112369 0 0)             (0.488856 0 0)
          9.2             (0.00307263 0 0)             (0.0383063 0 0)             (0.0762703 0 0)             (0.132295 0 0)             (0.440443 0 0)
          9.3             (0.00492258 0 0)             (0.0427693 0 0)             (0.0930914 0 0)             (0.196651 0 0)             (0.469957 0 0)
          9.4             (0.00478273 0 0)             (0.0508934 0 0)             (0.125722 0 0)             (0.43661 0 0)             (0.484564 0 0)
          9.5             (0.00508111 0 0)             (0.0659561 0 0)             (0.21867 0 0)             (0.433129 0 0)             (0.466047 0 0)
          9.6             (0.0072888 0 0)             (0.11382 0 0)             (0.397488 0 0)             (0.430781 0 0)             (0.467095 0 0)
          9.7             (0.0160651 0 0)             (0.352859 0 0)             (0.390459 0 0)             (0.426202 0 0)             (0.461232 0 0)
          9.8             (0.0612885 0 0)             (0.33148 0 0)             (0.381276 0 0)             (0.424326 0 0)             (0.457949 0 0)
          9.9             (0.00432728 0 0)             (0.278512 0 0)             (0.368783 0 0)             (0.421731 0 0)             (0.459986 0 0)
           10             (0.00288036 0 0)             (0.0483494 0 0)             (0.342504 0 0)             (0.415314 0 0)             (0.458647 0 0)
         10.1             (0.00229629 0 0)             (0.0326704 0 0)             (0.270365 0 0)             (0.402502 0 0)             (0.478377 0 0)
         10.2             (0.001546 0 0)             (0.0355092 0 0)             (0.0710782 0 0)             (0.362993 0 0)             (0.459525 0 0)
         10.3             (0.00301947 0 0)             (0.0372821 0 0)             (0.076218 0 0)             (0.148191 0 0)             (0.458887 0 0)
         10.4             (0.00332913 0 0)             (0.0398562 0 0)             (0.0822182 0 0)             (0.136564 0 0)             (0.449112 0 0)
         10.5             (0.00391738 0 0)             (0.0452954 0 0)             (0.0945699 0 0)             (0.178552 0 0)             (0.460653 0 0)
         10.6             (0.00440108 0 0)             (0.0504945 0 0)             (0.119021 0 0)             (0.358213 0 0)             (0.459237 0 0)
         10.7             (0.006555 0 0)             (0.0612129 0 0)             (0.184101 0 0)             (0.431009 0 0)             (0.458955 0 0)
         10.8             (0.00782424 0 0)             (0.0971393 0 0)             (0.394054 0 0)             (0.430243 0 0)             (0.460831 0 0)
         10.9             (0.0171872 0 0)             (0.222611 0 0)             (0.387429 0 0)             (0.425315 0 0)             (0.460836 0 0)
           11             (0.0290961 0 0)             (0.328941 0 0)             (0.379312 0 0)             (0.421519 0 0)             (0.489357 0 0)
         11.1             (0.00438875 0 0)             (0.289131 0 0)             (0.366412 0 0)             (0.418773 0 0)             (0.464297 0 0)
         11.2             (0.00322542 0 0)             (0.180673 0 0)             (0.346036 0 0)             (0.413805 0 0)             (0.459786 0 0)
         11.3             (0.00283653 0 0)             (0.0337194 0 0)             (0.290477 0 0)             (0.404748 0 0)             (0.460164 0 0)
         11.4             (0.00104895 0 0)             (0.037752 0 0)             (0.0711995 0 0)             (0.372986 0 0)             (0.45767 0 0)
         11.5             (0.00423243 0 0)             (0.0407069 0 0)             (0.0831703 0 0)             (0.285516 0 0)             (0.464107 0 0)
         11.6             (0.00413543 0 0)             (0.0461005 0 0)             (0.0878605 0 0)             (0.141788 0 0)             (0.451879 0 0)
         11.7             (0.00509663 0 0)             (0.0480084 0 0)             (0.099168 0 0)             (0.177006 0 0)             (0.472942 0 0)
         11.8             (0.00469386 0 0)             (0.0546898 0 0)             (0.118724 0 0)             (0.264847 0 0)             (0.49072 0 0)
         11.9             (0.0053919 0 0)             (0.0625497 0 0)             (0.174499 0 0)             (0.433036 0 0)             (0.483756 0 0)
           12             (0.00743861 0 0)             (0.0912782 0 0)             (0.390733 0 0)             (0.427837 0 0)             (0.459407 0 0)
         12.1             (0.01505 0 0)             (0.173615 0 0)             (0.382312 0 0)             (0.423833 0 0)             (0.46031 0 0)
         12.2             (0.0280994 0 0)             (0.323388 0 0)             (0.374219 0 0)             (0.419199 0 0)             (0.461653 0 0)
         12.3             (0.0784499 0 0)             (0.286877 0 0)             (0.361478 0 0)             (0.41746 0 0)             (0.463255 0 0)
         12.4             (0.00330238 0 0)             (0.204363 0 0)             (0.34609 0 0)             (0.411713 0 0)             (0.462236 0 0)
         12.5             (0.0029554 0 0)             (0.0361328 0 0)             (0.293537 0 0)             (0.403604 0 0)             (0.488334 0 0)
         12.6             (0.00170802 0 0)             (0.0406995 0 0)             (0.0854307 0 0)             (0.375267 0 0)             (0.461898 0 0)
         12.7             (0.00453627 0 0)             (0.0444887 0 0)             (0.0889913 0 0)             (0.300336 0 0)             (0.457594 0 0)
         12.8             (0.00536732 0 0)             (0.0493262 0 0)             (0.0955592 0 0)             (0.148191 0 0)             (0.456034 0 0)
         12.9             (0.00470244 0 0)             (0.0523677 0 0)             (0.10639 0 0)             (0.185664 0 0)             (0.482259 0 0)
           13             (0.00510042 0 0)             (0.0570206 0 0)             (0.125029 0 0)             (0.26421 0 0)             (0.46206 0 0)
         13.1             (0.00603165 0 0)             (0.065397 0 0)             (0.173818 0 0)             (0.431359 0 0)             (0.462609 0 0)
         13.2             (0.00859357 0 0)             (0.0935598 0 0)             (0.372781 0 0)             (0.425674 0 0)             (0.470154 0 0)
         13.3             (0.0131977 0 0)             (0.161823 0 0)             (0.376534 0 0)             (0.421862 0 0)             (0.466595 0 0)
         13.4             (0.0307395 0 0)             (0.314871 0 0)             (0.367958 0 0)             (0.417258 0 0)             (0.463973 0 0)
         13.5             (0.104368 0 0)             (0.277106 0 0)             (0.356084 0 0)             (0.414359 0 0)             (0.491075 0 0)
         13.6             (0.00407288 0 0)             (0.20171 0 0)             (0.339205 0 0)             (0.409264 0 0)             (0.459609 0 0)
         13.7             (0.00309354 0 0)             (0.0406935 0 0)             (0.290098 0 0)             (0.401261 0 0)             (0.463185 0 0)
         13.8             (0.00353351 0 0)             (0.0437597 0 0)             (0.114855 0 0)             (0.371976 0 0)             (0.461472 0 0)
         13.9             (0.00438952 0 0)             (0.0491499 0 0)             (0.0952963 0 0)             (0.305224 0 0)             (0.458203 0 0)
           14             (0.00573202 0 0)             (0.0518505 0 0)             (0.10402 0 0)             (0.161757 0 0)             (0.465614 0 0)
         14.1             (0.00560373 0 0)             (0.0559534 0 0)             (0.115124 0 0)             (0.194891 0 0)             (0.457941 0 0)
         14.2             (0.00570413 0 0)             (0.0610432 0 0)             (0.132583 0 0)             (0.272623 0 0)             (0.464707 0 0)
         14.3             (0.00633904 0 0)             (0.0697031 0 0)             (0.181948 0 0)             (0.425855 0 0)             (0.464034 0 0)
         14.4             (0.00815038 0 0)             (0.0965156 0 0)             (0.348075 0 0)             (0.423003 0 0)             (0.463221 0 0)
         14.5             (0.0141766 0 0)             (0.170092 0 0)             (0.368466 0 0)             (0.418451 0 0)             (0.464281 0 0)
         14.6             (0.0226143 0 0)             (0.3022 0 0)             (0.360361 0 0)             (0.414985 0 0)             (0.462544 0 0)
         14.7             (0.0640747 0 0)             (0.263818 0 0)             (0.349122 0 0)             (0.411577 0 0)             (0.464675 0 0)
         14.8             (0.00376828 0 0)             (0.186665 0 0)             (0.33068 0 0)             (0.406032 0 0)             (0.460566 0 0)
         14.9             (0.00415015 0 0)             (0.0460211 0 0)             (0.277717 0 0)             (0.397578 0 0)             (0.491577 0 0)
           15             (0.00564888 0 0)             (0.0494197 0 0)             (0.1022 0 0)             (0.369977 0 0)             (0.466281 0 0)
         15.1             (0.00483742 0 0)             (0.0546173 0 0)             (0.105695 0 0)             (0.289953 0 0)             (0.465307 0 0)
         15.2             (0.00556971 0 0)             (0.0576891 0 0)             (0.113919 0 0)             (0.17781 0 0)             (0.495284 0 0)
         15.3             (0.00709136 0 0)             (0.0613443 0 0)             (0.124713 0 0)             (0.214255 0 0)             (0.455355 0 0)
         15.4             (0.00645526 0 0)             (0.0661073 0 0)             (0.145483 0 0)             (0.306243 0 0)             (0.462798 0 0)
         15.5             (0.00754748 0 0)             (0.0752238 0 0)             (0.199095 0 0)             (0.421563 0 0)             (0.466254 0 0)
         15.6             (0.00782103 0 0)             (0.107709 0 0)             (0.367169 0 0)             (0.418558 0 0)             (0.4739 0 0)
         15.7             (0.015486 0 0)             (0.201862 0 0)             (0.358984 0 0)             (0.413895 0 0)             (0.466033 0 0)
         15.8             (0.0267631 0 0)             (0.284435 0 0)             (0.351004 0 0)             (0.411702 0 0)             (0.464232 0 0)
         15.9             (0.0211384 0 0)             (0.245398 0 0)             (0.340888 0 0)             (0.408548 0 0)             (0.473179 0 0)
           16             (0.00427914 0 0)             (0.137744 0 0)             (0.317341 0 0)             (0.40266 0 0)             (0.465095 0 0)
         16.1             (0.00458857 0 0)             (0.0518204 0 0)             (0.261482 0 0)             (0.39164 0 0)             (0.475615 0 0)
         16.2             (0.00589231 0 0)             (0.0561056 0 0)             (0.108153 0 0)             (0.355364 0 0)             (0.497295 0 0)
         16.3             (0.00580172 0 0)             (0.0600275 0 0)             (0.116233 0 0)             (0.239859 0 0)             (0.476978 0 0)
         16.4             (0.00606356 0 0)             (0.0622555 0 0)             (0.125006 0 0)             (0.196088 0 0)             (0.466679 0 0)
         16.5             (0.0064773 0 0)             (0.0655189 0 0)             (0.135568 0 0)             (0.241935 0 0)             (0.465942 0 0)
         16.6             (0.00678707 0 0)             (0.0711909 0 0)             (0.160456 0 0)             (0.376405 0 0)             (0.466543 0 0)
         16.7             (0.00852354 0 0)             (0.0848146 0 0)             (0.224152 0 0)             (0.416944 0 0)             (0.466744 0 0)
         16.8             (0.0105662 0 0)             (0.126169 0 0)             (0.354661 0 0)             (0.41396 0 0)             (0.465777 0 0)
         16.9             (0.0188266 0 0)             (0.263386 0 0)             (0.350169 0 0)             (0.410001 0 0)             (0.479415 0 0)
           17             (0.0454626 0 0)             (0.26568 0 0)             (0.341146 0 0)             (0.408215 0 0)             (0.467118 0 0)
         17.1             (0.00646802 0 0)             (0.215726 0 0)             (0.330186 0 0)             (0.404634 0 0)             (0.466908 0 0)
         17.2             (0.00518418 0 0)             (0.0663039 0 0)             (0.300845 0 0)             (0.398356 0 0)             (0.463019 0 0)
         17.3             (0.00562278 0 0)             (0.0582063 0 0)             (0.221011 0 0)             (0.382115 0 0)             (0.490057 0 0)
         17.4             (0.00636186 0 0)             (0.062158 0 0)             (0.122231 0 0)             (0.33581 0 0)             (0.498081 0 0)
         17.5             (0.00638172 0 0)             (0.0650315 0 0)             (0.127558 0 0)             (0.195705 0 0)             (0.460429 0 0)
         17.6             (0.00682816 0 0)             (0.0670755 0 0)             (0.136753 0 0)             (0.219453 0 0)             (0.479884 0 0)
         17.7             (0.00698543 0 0)             (0.0712684 0 0)             (0.149009 0 0)             (0.276298 0 0)             (0.468819 0 0)
         17.8             (0.00775934 0 0)             (0.0777416 0 0)             (0.183908 0 0)             (0.411659 0 0)             (0.464471 0 0)
         17.9             (0.00843768 0 0)             (0.098131 0 0)             (0.286148 0 0)             (0.412447 0 0)             (0.497332 0 0)
           18             (0.0126423 0 0)             (0.151952 0 0)             (0.345638 0 0)             (0.409157 0 0)             (0.469098 0 0)
         18.1             (0.023573 0 0)             (0.265504 0 0)             (0.339921 0 0)             (0.406809 0 0)             (0.46453 0 0)
         18.2             (0.0624613 0 0)             (0.241726 0 0)             (0.331183 0 0)             (0.404447 0 0)             (0.476914 0 0)
         18.3             (0.00661383 0 0)             (0.175975 0 0)             (0.316097 0 0)             (0.400406 0 0)             (0.500409 0 0)
         18.4             (0.00589663 0 0)             (0.0645537 0 0)             (0.273222 0 0)             (0.392013 0 0)             (0.468616 0 0)
         18.5             (0.00669194 0 0)             (0.0644238 0 0)             (0.14605 0 0)             (0.36724 0 0)             (0.469274 0 0)
         18.6             (0.00690645 0 0)             (0.0678822 0 0)             (0.132874 0 0)             (0.298513 0 0)             (0.486847 0 0)
         18.7             (0.0069327 0 0)             (0.0699417 0 0)             (0.139266 0 0)             (0.217289 0 0)             (0.467118 0 0)
         18.8             (0.00726219 0 0)             (0.0723417 0 0)             (0.148009 0 0)             (0.24958 0 0)             (0.462178 0 0)
         18.9             (0.00750467 0 0)             (0.0772301 0 0)             (0.167348 0 0)             (0.336622 0 0)             (0.464755 0 0)
           19             (0.00843695 0 0)             (0.0876281 0 0)             (0.218357 0 0)             (0.409213 0 0)             (0.49335 0 0)
         19.1             (0.0101513 0 0)             (0.119364 0 0)             (0.336664 0 0)             (0.408004 0 0)             (0.469254 0 0)
         19.2             (0.0167854 0 0)             (0.213552 0 0)             (0.336479 0 0)             (0.404983 0 0)             (0.470234 0 0)
         19.3             (0.0343039 0 0)             (0.247837 0 0)             (0.329552 0 0)             (0.403541 0 0)             (0.469872 0 0)
         19.4             (0.00894007 0 0)             (0.208159 0 0)             (0.31995 0 0)             (0.400491 0 0)             (0.466619 0 0)
         19.5             (0.00657127 0 0)             (0.0964114 0 0)             (0.295093 0 0)             (0.395192 0 0)             (0.465534 0 0)
         19.6             (0.0064655 0 0)             (0.0684056 0 0)             (0.227916 0 0)             (0.381067 0 0)             (0.466055 0 0)