# Probe 0 (1 0 0)
# Probe 1 (10 0 0)
# Probe 2 (20 0 0)
# Probe 3 (30 0 0)
# Probe 4 (40 0 0)
#       Probe             0             1             2             3             4
#        Time
            0             (0 0 0)             (0 0 0)             (0 0 0)             (0 0 0)             (0 0 0)
          0.1             (8.83801e-13 0 0)             (-6.92182e-13 0 0)             (0.00130927 0 0)             (0.00252352 0 0)             (0.448331 0 0)
          0.2             (0.00242875 0 0)             (0.00246087 0 0)             (0.0024829 0 0)             (0.456138 0 0)             (0.452076 0 0)
          0.3             (4.32794e-05 0 0)             (0.00246556 0 0)             (0.00268848 0 0)             (0.449334 0 0)             (0.457161 0 0)
          0.4             (-1.69307e-05 0 0)             (2.21707e-05 0 0)             (0.446553 0 0)             (0.458945 0 0)             (0.452589 0 0)
          0.5             (3.12104e-05 0 0)             (0.000288699 0 0)             (0.459549 0 0)             (0.450802 0 0)             (0.450654 0 0)
          0.6             (8.79336e-05 0 0)             (0.449408 0 0)             (0.446004 0 0)             (0.454417 0 0)             (0.456376 0 0)
          0.7             (0.0216835 0 0)             (0.456973 0 0)             (0.460043 0 0)             (0.443511 0 0)             (0.450521 0 0)
          0.8             (0.00566822 0 0)             (0.427094 0 0)             (0.450836 0 0)             (0.448051 0 0)             (0.453604 0 0)
          0.9             (0.00391594 0 0)             (0.37101 0 0)             (0.425805 0 0)             (0.436915 0 0)             (0.450569 0 0)
            1             (-0.00212308 0 0)             (0.00471204 0 0)             (0.406787 0 0)             (0.435244 0 0)             (0.457813 0 0)
          1.1             (-0.00299062 0 0)             (0.00124349 0 0)             (0.0181914 0 0)             (0.430842 0 0)             (0.460734 0 0)
          1.2             (0.0024461 0 0)             (0.00928063 0 0)             (0.0135729 0 0)             (0.415737 0 0)             (0.450286 0 0)
          1.3             (0.000147907 0 0)             (0.00493349 0 0)             (0.0100452 0 0)             (0.0241883 0 0)             (0.450595 0 0)
          1.4             (5.54646e-05 0 0)             (0.00438591 0 0)             (0.0129501 0 0)             (0.0181575 0 0)             (0.449878 0 0)
          1.5             (7.54798e-05 0 0)             (0.00611808 0 0)             (0.0194485 0 0)             (0.0483159 0 0)             (0.467534 0 0)
          1.6             (-8.06901e-05 0 0)             (0.0130667 0 0)             (0.036745 0 0)             (0.152634 0 0)             (0.454024 0 0)
          1.7             (0.000132611 0 0)             (0.0214931 0 0)             (0.0745903 0 0)             (0.466035 0 0)             (0.472191 0 0)
          1.8             (0.000449511 0 0)             (0.0436533 0 0)             (0.369779 0 0)             (0.451901 0 0)             (0.451957 0 0)
          1.9             (0.00551751 0 0)             (0.0743252 0 0)             (0.437398 0 0)             (0.454429 0 0)             (0.454306 0 0)
            2             (0.00436199 0 0)             (0.428664 0 0)             (0.439442 0 0)             (0.44524 0 0)             (0.451693 0 0)
          2.1             (0.0730919 0 0)             (0.414878 0 0)             (0.436159 0 0)             (0.446023 0 0)             (0.451961 0 0)
          2.2             (0.00615511 0 0)             (0.375306 0 0)             (0.43243 0 0)             (0.445964 0 0)             (0.451681 0 0)
          2.3             (0.0014566 0 0)             (0.212896 0 0)             (0.412429 0 0)             (0.444241 0 0)             (0.452172 0 0)
          2.4             (0.000893426 0 0)             (0.00965825 0 0)             (0.373471 0 0)             (0.436917 0 0)             (0.455932 0 0)
          2.5             (0.000105043 0 0)             (0.0113204 0 0)             (0.0163566 0 0)             (0.411855 0 0)             (0.451824 0 0)
          2.6             (0.000546226 0 0)             (0.00930591 0 0)             (0.0144333 0 0)             (0.364202 0 0)             (0.454784 0 0)
          2.7             (-0.00011106 0 0)             (0.00880673 0 0)             (0.0216421 0 0)             (0.0261005 0 0)             (0.474369 0 0)
          2.8             (1.04544e-05 0 0)             (0.00854897 0 0)             (0.0243551 0 0)             (0.0567753 0 0)             (0.450458 0 0)
          2.9             (0.00110651 0 0)             (0.0139247 0 0)             (0.030322 0 0)             (0.0988064 0 0)             (0.471619 0 0)
            3             (0.00075631 0 0)             (0.0184764 0 0)             (0.0577781 0 0)             (0.431927 0 0)             (0.466426 0 0)
          3.1             (0.00113964 0 0)             (0.0296042 0 0)             (0.113166 0 0)             (0.449381 0 0)             (0.452972 0 0)
          3.2             (0.00334492 0 0)             (0.0624594 0 0)             (0.441778 0 0)             (0.447607 0 0)             (0.453136 0 0)
          3.3             (0.016287 0 0)             (0.29822 0 0)             (0.438073 0 0)             (0.447359 0 0)             (0.459535 0 0)
          3.4             (0.0171368 0 0)             (0.419118 0 0)             (0.433388 0 0)             (0.446048 0 0)             (0.461688 0 0)
          3.5             (0.0460429 0 0)             (0.379659 0 0)             (0.425453 0 0)             (0.445566 0 0)             (0.453721 0 0)
          3.6             (0.000846581 0 0)             (0.310399 0 0)             (0.411902 0 0)             (0.442523 0 0)             (0.46525 0 0)
          3.7             (0.00133028 0 0)             (0.00987419 0 0)             (0.377295 0 0)             (0.434907 0 0)             (0.453281 0 0)
          3.8             (0.000544996 0 0)             (0.0111887 0 0)             (0.181276 0 0)             (0.408065 0 0)             (0.45324 0 0)
          3.9             (7.10895e-05 0 0)             (0.00990057 0 0)             (0.0181728 0 0)             (0.37099 0 0)             (0.451657 0 0)
            4             (1.02412e-05 0 0)             (0.00766915 0 0)             (0.0262882 0 0)             (0.0333661 0 0)             (0.466832 0 0)
          4.1             (4.75953e-05 0 0)             (0.00900218 0 0)             (0.031972 0 0)             (0.0556398 0 0)             (0.475023 0 0)
          4.2             (-2.31319e-05 0 0)             (0.0189913 0 0)             (0.0398832 0 0)             (0.100579 0 0)             (0.462804 0 0)
          4.3             (0.000511513 0 0)             (0.0259243 0 0)             (0.0631094 0 0)             (0.321888 0 0)             (0.454821 0 0)
          4.4             (0.00196933 0 0)             (0.0337731 0 0)             (0.120494 0 0)             (0.447129 0 0)             (0.45469 0 0)
          4.5             (0.00336815 0 0)             (0.0640455 0 0)             (0.433095 0 0)             (0.449934 0 0)             (0.454407 0 0)
          4.6             (0.0139314 0 0)             (0.172435 0 0)             (0.433941 0 0)             (0.44219 0 0)             (0.460137 0 0)
          4.7             (0.019705 0 0)             (0.40926 0 0)             (0.426941 0 0)             (0.442868 0 0)             (0.474085 0 0)
          4.8             (0.117049 0 0)             (0.376382 0 0)             (0.416789 0 0)             (0.44194 0 0)             (0.454565 0 0)
          4.9             (0.000898328 0 0)             (0.308316 0 0)             (0.402258 0 0)             (0.438631 0 0)             (0.461104 0 0)
            5             (0.00132711 0 0)             (0.0123067 0 0)             (0.366842 0 0)             (0.425306 0 0)             (0.454839 0 0)
          5.1             (0.000823755 0 0)             (0.0115821 0 0)             (0.208727 0 0)             (0.409697 0 0)             (0.45731 0 0)
          5.2             (0.000128542 0 0)             (0.0132809 0 0)             (0.0269942 0 0)             (0.355535 0 0)             (0.454481 0 0)
          5.3             (0.000169221 0 0)             (0.0149443 0 0)             (0.0324946 0 0)             (0.0869994 0 0)             (0.452797 0 0)
          5.4             (0.00201636 0 0)             (0.0189227 0 0)             (0.0396157 0 0)             (0.0762068 0 0)             (0.475369 0 0)
          5.5             (0.000444932 0 0)             (0.0229097 0 0)             (0.0530244 0 0)             (0.125595 0 0)             (0.455674 0 0)
          5.6             (0.00162095 0 0)             (0.0307775 0 0)             (0.0752133 0 0)             (0.375141 0 0)             (0.455502 0 0)
          5.7             (0.00383481 0 0)             (0.041357 0 0)             (0.142141 0 0)             (0.447024 0 0)             (0.46037 0 0)
          5.8             (0.00369674 0 0)             (0.0754671 0 0)             (0.416109 0 0)             (0.444128 0 0)             (0.455343 0 0)
          5.9             (0.0110143 0 0)             (0.19213 0 0)             (0.423804 0 0)             (0.44043 0 0)             (0.455374 0 0)
            6             (0.0256064 0 0)             (0.387896 0 0)             (0.414698 0 0)             (0.438336 0 0)             (0.468538 0 0)
          6.1             (0.100829 0 0)             (0.354729 0 0)             (0.404223 0 0)             (0.436539 0 0)             (0.455241 0 0)
          6.2             (0.00135974 0 0)             (0.274251 0 0)             (0.387282 0 0)             (0.430882 0 0)             (0.455668 0 0)
          6.3             (0.00159083 0 0)             (0.0160695 0 0)             (0.336838 0 0)             (0.4227 0 0)             (0.455089 0 0)
          6.4             (0.000663953 0 0)             (0.017474 0 0)             (0.103567 0 0)             (0.400823 0 0)             (0.455161 0 0)
          6.5             (0.00265929 0 0)             (0.0205983 0 0)             (0.0391257 0 0)             (0.332956 0 0)             (0.455274 0 0)
          6.6             (0.00265003 0 0)             (0.0233903 0 0)             (0.0458189 0 0)             (0.0700958 0 0)             (0.455164 0 0)
          6.7             (0.00146377 0 0)             (0.0267596 0 0)             (0.0552337 0 0)             (0.09892 0 0)             (0.460353 0 0)
          6.8             (0.00235514 0 0)             (0.0305702 0 0)             (0.0689031 0 0)             (0.16629 0 0)             (0.456888 0 0)
          6.9             (0.00263545 0 0)             (0.0371682 0 0)             (0.0994878 0 0)             (0.446954 0 0)             (0.467569 0 0)
            7             (0.00642425 0 0)             (0.0505961 0 0)             (0.182783 0 0)             (0.444082 0 0)             (0.476248 0 0)
          7.1             (0.00570481 0 0)             (0.104473 0 0)             (0.42164 0 0)             (0.440192 0 0)             (0.45663 0 0)
          7.2             (0.0184807 0 0)             (0.282081 0 0)             (0.413997 0 0)             (0.435505 0 0)             (0.456379 0 0)
          7.3             (0.0208925 0 0)             (0.366159 0 0)             (0.402758 0 0)             (0.434467 0 0)             (0.456113 0 0)
          7.4             (-0.00283067 0 0)             (0.320046 0 0)             (0.392635 0 0)             (0.430309 0 0)             (0.456334 0 0)
          7.5             (0.00126217 0 0)             (0.191639 0 0)             (0.367029 0 0)             (0.424698 0 0)             (0.456298 0 0)
          7.6             (0.00155802 0 0)             (0.0183957 0 0)             (0.289363 0 0)             (0.411148 0 0)             (0.456672 0 0)
          7.7             (-5.49796e-05 0 0)             (0.0244435 0 0)             (0.0373417 0 0)             (0.377464 0 0)             (0.473212 0 0)
          7.8             (0.00067304 0 0)             (0.0240847 0 0)             (0.0488546 0 0)             (0.274108 0 0)             (0.457378 0 0)
          7.9             (0.000677571 0 0)             (0.0268811 0 0)             (0.0580085 0 0)             (0.0841008 0 0)             (0.45229 0 0)
            8             (0.000677688 0 0)             (0.0297996 0 0)             (0.0671941 0 0)             (0.130552 0 0)             (0.463345 0 0)
          8.1             (0.00351124 0 0)             (0.0370027 0 0)             (0.0863484 0 0)             (0.217926 0 0)             (0.478583 0 0)
          8.2             (0.00355943 0 0)             (0.0483727 0 0)             (0.140173 0 0)             (0.446459 0 0)             (0.458258 0 0)
          8.3             (0.00592145 0 0)             (0.0736205 0 0)             (0.314791 0 0)             (0.440487 0 0)             (0.476278 0 0)
          8.4             (0.0116354 0 0)             (0.15158 0 0)             (0.413733 0 0)             (0.439484 0 0)             (0.458192 0 0)
          8.5             (0.0280466 0 0)             (0.378161 0 0)             (0.406767 0 0)             (0.432584 0 0)             (0.461623 0 0)
          8.6             (0.0916831 0 0)             (0.34468 0 0)             (0.394171 0 0)             (0.428065 0 0)             (0.465765 0 0)
          8.7             (0.0021868 0 0)             (0.257629 0 0)             (0.376791 0 0)             (0.425543 0 0)             (0.457564 0 0)
          8.8             (0.00180839 0 0)             (0.0179781 0 0)             (0.337389 0 0)             (0.417864 0 0)             (0.458099 0 0)
          8.9             (0.00151375 0 0)             (0.0220667 0 0)             (0.24265 0 0)             (0.396703 0 0)             (0.457523 0 0)
            9             (0.00088949 0 0)             (0.0237375 0 0)             (0.0516306 0 0)             (0.325082 0 0)             (0.455523 0 0)
          9.1             (0.00216969 0 0)             (0.0270795 0 0)             (0.0608079 0 0)             (0.113755 0 0)             (0.456078 0 0)
          9.2             (0.00376684 0 0)             (0.0332448 0 0)             (0.067204 0 0)             (0.121306 0 0)             (0.473994 0 0)
          9.3             (0.00428494 0 0)             (0.0394013 0 0)             (0.0819657 0 0)             (0.188161 0 0)             (0.459375 0 0)
          9.4             (0.00554056 0 0)             (0.044698 0 0)             (0.117209 0 0)             (0.39684 0 0)             (0.478873 0 0)
          9.5             (0.00525178 0 0)             (0.0631011 0 0)             (0.206022 0 0)             (0.440782 0 0)             (0.477368 0 0)
          9.6             (0.00727124 0 0)             (0.116003 0 0)             (0.41145 0 0)             (0.438578 0 0)             (0.462898 0 0)
          9.7             (0.0178472 0 0)             (0.299756 0 0)             (0.402775 0 0)             (0.433108 0 0)             (0.460155 0 0)
          9.8             (0.0232841 0 0)             (0.349239 0 0)             (0.392788 0 0)             (0.429354 0 0)             (0.465753 0 0)
          9.9             (0.0127312 0 0)             (0.292304 0 0)             (0.379189 0 0)             (0.425229 0 0)             (0.480238 0 0)
           10             (0.00244117 0 0)             (0.188215 0 0)             (0.35146 0 0)             (0.419774 0 0)             (0.475726 0 0)
         10.1             (0.00222672 0 0)             (0.0245617 0 0)             (0.256929 0 0)             (0.407621 0 0)             (0.457498 0 0)
         10.2             (0.00154859 0 0)             (0.0272627 0 0)             (0.0544542 0 0)             (0.364044 0 0)             (0.458603 0 0)
         10.3             (0.0035032 0 0)             (0.0299713 0 0)             (0.0653735 0 0)             (0.273071 0 0)             (0.460382 0 0)
         10.4             (0.00425635 0 0)             (0.0353046 0 0)             (0.0712141 0 0)             (0.116446 0 0)             (0.458449 0 0)
         10.5             (0.00362473 0 0)             (0.0406129 0 0)             (0.0842111 0 0)             (0.166438 0 0)             (0.460438 0 0)
         10.6             (0.00463816 0 0)             (0.0460606 0 0)             (0.108291 0 0)             (0.255944 0 0)             (0.46076 0 0)
         10.7             (0.00457099 0 0)             (0.0586903 0 0)             (0.179332 0 0)             (0.44268 0 0)             (0.461435 0 0)
         10.8             (0.00698304 0 0)             (0.0941839 0 0)             (0.39299 0 0)             (0.437657 0 0)             (0.460226 0 0)
         10.9             (0.0153843 0 0)             (0.18103 0 0)             (0.40089 0 0)             (0.433273 0 0)             (0.460246 0 0)
           11             (0.0328861 0 0)             (0.349558 0 0)             (0.392581 0 0)             (0.425912 0 0)             (0.464244 0 0)
         11.1             (0.126768 0 0)             (0.308889 0 0)             (0.379309 0 0)             (0.422575 0 0)             (0.472857 0 0)
         11.2             (0.00281428 0 0)             (0.209975 0 0)             (0.356069 0 0)             (0.418365 0 0)             (0.459392 0 0)
         11.3             (0.00260282 0 0)             (0.0255387 0 0)             (0.292013 0 0)             (0.408686 0 0)             (0.461115 0 0)
         11.4             (0.0017878 0 0)             (0.0287321 0 0)             (0.122674 0 0)             (0.380043 0 0)             (0.480758 0 0)
         11.5             (0.00317908 0 0)             (0.0322498 0 0)             (0.0685036 0 0)             (0.290357 0 0)             (0.45991 0 0)
         11.6             (0.00485353 0 0)             (0.0384979 0 0)             (0.0745815 0 0)             (0.118281 0 0)             (0.462596 0 0)
         11.7             (0.00435233 0 0)             (0.0446013 0 0)             (0.0855134 0 0)             (0.160784 0 0)             (0.485561 0 0)
         11.8             (0.00458759 0 0)             (0.0485519 0 0)             (0.110165 0 0)             (0.253087 0 0)             (0.468608 0 0)
         11.9             (0.00470169 0 0)             (0.0570009 0 0)             (0.16933 0 0)             (0.440381 0 0)             (0.474743 0 0)
           12             (0.00674017 0 0)             (0.0853172 0 0)             (0.269078 0 0)             (0.437582 0 0)             (0.463651 0 0)
         12.1             (0.0151707 0 0)             (0.17401 0 0)             (0.397281 0 0)             (0.431565 0 0)             (0.463145 0 0)
         12.2             (0.0325235 0 0)             (0.3462 0 0)             (0.386991 0 0)             (0.426095 0 0)             (0.462037 0 0)
         12.3             (0.0684978 0 0)             (0.30873 0 0)             (0.375461 0 0)             (0.422056 0 0)             (0.4615 0 0)
         12.4             (0.00256922 0 0)             (0.213475 0 0)             (0.356843 0 0)             (0.41877 0 0)             (0.472869 0 0)
         12.5             (0.00315581 0 0)             (0.030004 0 0)             (0.297003 0 0)             (0.408816 0 0)             (0.462247 0 0)
         12.6             (0.00225194 0 0)             (0.0325126 0 0)             (0.202181 0 0)             (0.383236 0 0)             (0.462196 0 0)
         12.7             (0.0023715 0 0)             (0.0348112 0 0)             (0.074939 0 0)             (0.301013 0 0)             (0.46012 0 0)
         12.8             (0.00441577 0 0)             (0.0415562 0 0)             (0.0806764 0 0)             (0.12388 0 0)             (0.463643 0 0)
         12.9             (0.0042351 0 0)             (0.0454037 0 0)             (0.0908184 0 0)             (0.163248 0 0)             (0.457185 0 0)
           13             (0.00473553 0 0)             (0.0514655 0 0)             (0.111431 0 0)             (0.250474 0 0)             (0.46264 0 0)
         13.1             (0.00516963 0 0)             (0.058813 0 0)             (0.166425 0 0)             (0.435122 0 0)             (0.482161 0 0)
         13.2             (0.00808098 0 0)             (0.0875645 0 0)             (0.259858 0 0)             (0.43365 0 0)             (0.462605 0 0)
         13.3             (0.0155105 0 0)             (0.166785 0 0)             (0.389953 0 0)             (0.429765 0 0)             (0.463332 0 0)
         13.4             (0.0353193 0 0)             (0.334789 0 0)             (0.383165 0 0)             (0.425012 0 0)             (0.462874 0 0)
         13.5             (0.0488082 0 0)             (0.301603 0 0)             (0.370771 0 0)             (0.42209 0 0)             (0.475268 0 0)
         13.6             (0.00318771 0 0)             (0.216025 0 0)             (0.352923 0 0)             (0.416016 0 0)             (0.463286 0 0)
         13.7             (0.00285963 0 0)             (0.0331357 0 0)             (0.297731 0 0)             (0.408097 0 0)             (0.484343 0 0)
         13.8             (0.0031491 0 0)             (0.0368074 0 0)             (0.206949 0 0)             (0.38057 0 0)             (0.462718 0 0)
         13.9             (0.00316859 0 0)             (0.0408799 0 0)             (0.0815873 0 0)             (0.305877 0 0)             (0.463536 0 0)
           14             (0.00497702 0 0)             (0.0450499 0 0)             (0.0891427 0 0)             (0.133467 0 0)             (0.464804 0 0)
         14.1             (0.00501602 0 0)             (0.0476628 0 0)             (0.0991839 0 0)             (0.173979 0 0)             (0.486956 0 0)
         14.2             (0.0050733 0 0)             (0.0538799 0 0)             (0.118361 0 0)             (0.259 0 0)             (0.466881 0 0)
         14.3             (0.00669404 0 0)             (0.0631513 0 0)             (0.175192 0 0)             (0.434497 0 0)             (0.464628 0 0)
         14.4             (0.00720873 0 0)             (0.0919988 0 0)             (0.266254 0 0)             (0.429939 0 0)             (0.464105 0 0)
         14.5             (0.0153015 0 0)             (0.165847 0 0)             (0.383879 0 0)             (0.426388 0 0)             (0.468603 0 0)
         14.6             (0.0334528 0 0)             (0.323427 0 0)             (0.374917 0 0)             (0.422355 0 0)             (0.464783 0 0)
         14.7             (0.0580661 0 0)             (0.28627 0 0)             (0.36361 0 0)             (0.419154 0 0)             (0.484835 0 0)
         14.8             (0.00361569 0 0)             (0.203809 0 0)             (0.344782 0 0)             (0.414066 0 0)             (0.46461 0 0)
         14.9             (0.00308932 0 0)             (0.0369854 0 0)             (0.283275 0 0)             (0.404279 0 0)             (0.483749 0 0)
           15             (0.00414387 0 0)             (0.0414584 0 0)             (0.189988 0 0)             (0.374441 0 0)             (0.464918 0 0)
         15.1             (0.00477275 0 0)             (0.046108 0 0)             (0.0903705 0 0)             (0.29449 0 0)             (0.464339 0 0)
         15.2             (0.00486933 0 0)             (0.0498693 0 0)             (0.0982903 0 0)             (0.152186 0 0)             (0.487978 0 0)
         15.3             (0.00509977 0 0)             (0.0532366 0 0)             (0.110015 0 0)             (0.192911 0 0)             (0.464588 0 0)
         15.4             (0.00536031 0 0)             (0.0583756 0 0)             (0.129342 0 0)             (0.277581 0 0)             (0.466028 0 0)
         15.5             (0.00712831 0 0)             (0.0684133 0 0)             (0.190951 0 0)             (0.430013 0 0)             (0.485657 0 0)
         15.6             (0.0086336 0 0)             (0.103462 0 0)             (0.293002 0 0)             (0.426453 0 0)             (0.465505 0 0)
         15.7             (0.0144614 0 0)             (0.179448 0 0)             (0.374899 0 0)             (0.422154 0 0)             (0.480051 0 0)
         15.8             (0.0328544 0 0)             (0.311414 0 0)             (0.367281 0 0)             (0.418981 0 0)             (0.466159 0 0)
         15.9             (0.0833378 0 0)             (0.264763 0 0)             (0.354925 0 0)             (0.416037 0 0)             (0.472181 0 0)
           16             (0.00349078 0 0)             (0.176563 0 0)             (0.333019 0 0)             (0.410428 0 0)             (0.465791 0 0)
         16.1             (0.0037818 0 0)             (0.0429755 0 0)             (0.26319 0 0)             (0.399001 0 0)             (0.484763 0 0)
         16.2             (0.00496341 0 0)             (0.0468527 0 0)             (0.138908 0 0)             (0.357676 0 0)             (0.465714 0 0)
         16.3             (0.00511119 0 0)             (0.0517187 0 0)             (0.0998335 0 0)             (0.281691 0 0)             (0.477399 0 0)
         16.4             (0.00516655 0 0)             (0.0541475 0 0)             (0.10841 0 0)             (0.172837 0 0)             (0.488887 0 0)
         16.5             (0.00568929 0 0)             (0.0575466 0 0)             (0.12043 0 0)             (0.220817 0 0)             (0.477777 0 0)
         16.6             (0.00621065 0 0)             (0.0635182 0 0)             (0.145709 0 0)             (0.307508 0 0)             (0.466579 0 0)
         16.7             (0.00670089 0 0)             (0.0773086 0 0)             (0.216045 0 0)             (0.425045 0 0)             (0.467596 0 0)
         16.8             (0.00908638 0 0)             (0.123381 0 0)             (0.358288 0 0)             (0.422537 0 0)             (0.466788 0 0)
         16.9             (0.0195577 0 0)             (0.201624 0 0)             (0.366598 0 0)             (0.418057 0 0)             (0.467355 0 0)
           17             (0.0279089 0 0)             (0.288617 0 0)             (0.358112 0 0)             (0.415991 0 0)             (0.486217 0 0)
         17.1             (0.0357303 0 0)             (0.234633 0 0)             (0.345608 0 0)             (0.412588 0 0)             (0.467751 0 0)
         17.2             (0.00444366 0 0)             (0.142916 0 0)             (0.314512 0 0)             (0.406109 0 0)             (0.467603 0 0)
         17.3             (0.00455485 0 0)             (0.0494109 0 0)             (0.241562 0 0)             (0.389981 0 0)             (0.487996 0 0)
         17.4             (0.00571318 0 0)             (0.0530646 0 0)             (0.103187 0 0)             (0.336868 0 0)             (0.478846 0 0)
         17.5             (0.00551284 0 0)             (0.0566476 0 0)             (0.11046 0 0)             (0.245713 0 0)             (0.469015 0 0)
         17.6             (0.00580567 0 0)             (0.0589757 0 0)             (0.119263 0 0)             (0.19417 0 0)             (0.482274 0 0)
         17.7             (0.00600071 0 0)             (0.0627511 0 0)             (0.133173 0 0)             (0.257776 0 0)             (0.466824 0 0)
         17.8             (0.0066688 0 0)             (0.0702081 0 0)             (0.171375 0 0)             (0.368722 0 0)             (0.484515 0 0)
         17.9             (0.00834532 0 0)             (0.0903617 0 0)             (0.247338 0 0)             (0.421038 0 0)             (0.469044 0 0)
           18             (0.0121438 0 0)             (0.150767 0 0)             (0.361181 0 0)             (0.417917 0 0)             (0.482573 0 0)
         18.1             (0.0252108 0 0)             (0.262476 0 0)             (0.357351 0 0)             (0.414807 0 0)             (0.468682 0 0)
         18.2             (0.0379516 0 0)             (0.26587 0 0)             (0.347725 0 0)             (0.412536 0 0)             (0.46902 0 0)
         18.3             (0.00581707 0 0)             (0.196462 0 0)             (0.331792 0 0)             (0.408582 0 0)             (0.478542 0 0)
         18.4             (0.00494998 0 0)             (0.0679834 0 0)             (0.284158 0 0)             (0.399725 0 0)             (0.468379 0 0)
         18.5             (0.00528983 0 0)             (0.0552461 0 0)             (0.199626 0 0)             (0.37323 0 0)             (0.469079 0 0)
         18.6             (0.00589559 0 0)             (0.0586681 0 0)             (0.115814 0 0)             (0.309235 0 0)             (0.468225 0 0)
         18.7             (0.00605531 0 0)             (0.0616228 0 0)             (0.121398 0 0)             (0.19338 0 0)             (0.467683 0 0)
         18.8             (0.00637055 0 0)             (0.0637332 0 0)             (0.131679 0 0)             (0.225764 0 0)             (0.467647 0 0)
         18.9             (0.00663942 0 0)             (0.0686494 0 0)             (0.151266 0 0)             (0.29965 0 0)             (0.469962 0 0)
           19             (0.00738123 0 0)             (0.0799877 0 0)             (0.207439 0 0)             (0.415806 0 0)             (0.4732 0 0)
         19.1             (0.0094729 0 0)             (0.115391 0 0)             (0.308905 0 0)             (0.417122 0 0)             (0.489463 0 0)
         19.2             (0.0170516 0 0)             (0.183944 0 0)             (0.353501 0 0)             (0.413773 0 0)             (0.470402 0 0)
         19.3             (0.026919 0 0)             (0.270822 0 0)             (0.347392 0 0)             (0.411751 0 0)             (0.470211 0 0)
         19.4             (0.0462009 0 0)             (0.229073 0 0)             (0.336243 0 0)             (0.408868 0 0)             (0.484003 0 0)
         19.5             (0.00598386 0 0)             (0.14795 0 0)             (0.309891 0 0)             (0.403172 0 0)             (0.473553 0 0)