# Probe 0 (1 0 0)
# Probe 1 (10 0 0)
# Probe 2 (20 0 0)
# Probe 3 (30 0 0)
# Probe 4 (40 0 0)
#       Probe             0             1             2             3             4
#        Time
            0             (0 0 0)             (0 0 0)             (0 0 0)             (0 0 0)             (0 0 0)
          0.1             (1.11127e-12 0 0)             (4.0549e-13 0 0)             (0.00130874 0 0)             (0.00254083 0 0)             (0.472951 0 0)
          0.2             (0.00243097 0 0)             (0.00246051 0 0)             (0.00248199 0 0)             (0.453919 0 0)             (0.451652 0 0)
          0.3             (-8.80885e-05 0 0)             (0.00246705 0 0)             (0.0026887 0 0)             (0.458765 0 0)             (0.463837 0 0)
          0.4             (-2.39982e-05 0 0)             (4.81074e-05 0 0)             (0.426454 0 0)             (0.464195 0 0)             (0.4526 0 0)
          0.5             (8.22012e-05 0 0)             (0.000702866 0 0)             (0.446382 0 0)             (0.450409 0 0)             (0.451681 0 0)
          0.6             (0.000113664 0 0)             (0.444737 0 0)             (0.459333 0 0)             (0.453755 0 0)             (0.450777 0 0)
          0.7             (0.0187436 0 0)             (0.45045 0 0)             (0.457682 0 0)             (0.443266 0 0)             (0.449915 0 0)
          0.8             (0.00703105 0 0)             (0.42685 0 0)             (0.454278 0 0)             (0.464203 0 0)             (0.45194 0 0)
          0.9             (0.00347173 0 0)             (0.370871 0 0)             (0.424092 0 0)             (0.433902 0 0)             (0.449898 0 0)
            1             (-0.00127506 0 0)             (-0.00118717 0 0)             (0.406924 0 0)             (0.429138 0 0)             (0.451081 0 0)
          1.1             (0.00201034 0 0)             (0.00602029 0 0)             (-0.0112102 0 0)             (0.430595 0 0)             (0.450405 0 0)
          1.2             (0.00250587 0 0)             (0.00306651 0 0)             (0.0180901 0 0)             (0.40424 0 0)             (0.451186 0 0)
          1.3             (0.000413029 0 0)             (0.00668871 0 0)             (0.00846834 0 0)             (0.0146 0 0)             (0.469593 0 0)
          1.4             (0.000121774 0 0)             (0.00279254 0 0)             (0.016814 0 0)             (0.0282393 0 0)             (0.449101 0 0)
          1.5             (0.000304493 0 0)             (0.00668277 0 0)             (0.0270716 0 0)             (0.0555871 0 0)             (0.455872 0 0)
          1.6             (0.000624962 0 0)             (0.0147023 0 0)             (0.0429851 0 0)             (0.106154 0 0)             (0.452317 0 0)
          1.7             (0.000727223 0 0)             (0.0285508 0 0)             (0.0679751 0 0)             (0.454673 0 0)             (0.451337 0 0)
          1.8             (0.000874147 0 0)             (0.0422619 0 0)             (0.440944 0 0)             (0.447913 0 0)             (0.45195 0 0)
          1.9             (0.00120027 0 0)             (0.0605812 0 0)             (0.440564 0 0)             (0.449103 0 0)             (0.451904 0 0)
            2             (0.015303 0 0)             (0.425163 0 0)             (0.436703 0 0)             (0.449521 0 0)             (0.452399 0 0)
          2.1             (0.0300295 0 0)             (0.413762 0 0)             (0.430629 0 0)             (0.439805 0 0)             (0.452181 0 0)
          2.2             (0.00636814 0 0)             (0.381193 0 0)             (0.420507 0 0)             (0.440872 0 0)             (0.457182 0 0)
          2.3             (-0.000484788 0 0)             (0.266285 0 0)             (0.407636 0 0)             (0.438026 0 0)             (0.467454 0 0)
          2.4             (0.00211976 0 0)             (0.0110714 0 0)             (0.376314 0 0)             (0.431798 0 0)             (0.451747 0 0)
          2.5             (0.000125597 0 0)             (0.00775018 0 0)             (0.0222424 0 0)             (0.421552 0 0)             (0.45566 0 0)
          2.6             (-0.000180134 0 0)             (0.00616315 0 0)             (0.0201302 0 0)             (0.35287 0 0)             (0.471939 0 0)
          2.7             (0.000229973 0 0)             (0.0112669 0 0)             (0.0205559 0 0)             (0.0304005 0 0)             (0.453012 0 0)
          2.8             (0.000408548 0 0)             (0.0124703 0 0)             (0.0264148 0 0)             (0.0548816 0 0)             (0.443418 0 0)
          2.9             (4.81711e-05 0 0)             (0.010285 0 0)             (0.0419595 0 0)             (0.0983889 0 0)             (0.454015 0 0)
            3             (0.000470059 0 0)             (0.0180307 0 0)             (0.0614394 0 0)             (0.448155 0 0)             (0.453293 0 0)
          3.1             (0.00253088 0 0)             (0.034163 0 0)             (0.11594 0 0)             (0.452313 0 0)             (0.462839 0 0)
          3.2             (0.00875551 0 0)             (0.0593923 0 0)             (0.436248 0 0)             (0.444478 0 0)             (0.453043 0 0)
          3.3             (0.00417819 0 0)             (0.185061 0 0)             (0.429989 0 0)             (0.444569 0 0)             (0.453217 0 0)
          3.4             (0.0183409 0 0)             (0.4001 0 0)             (0.426532 0 0)             (0.441728 0 0)             (0.453033 0 0)
          3.5             (0.16774 0 0)             (0.379211 0 0)             (0.418188 0 0)             (0.435402 0 0)             (0.453325 0 0)
          3.6             (0.00135492 0 0)             (0.307894 0 0)             (0.400928 0 0)             (0.431796 0 0)             (0.453463 0 0)
          3.7             (-0.000246102 0 0)             (0.0110537 0 0)             (0.371861 0 0)             (0.426828 0 0)             (0.453245 0 0)
          3.8             (0.000800429 0 0)             (0.0100769 0 0)             (0.233622 0 0)             (0.415485 0 0)             (0.471602 0 0)
          3.9             (0.000183777 0 0)             (0.00951572 0 0)             (0.0257392 0 0)             (0.376909 0 0)             (0.471659 0 0)
            4             (0.000156938 0 0)             (0.0139828 0 0)             (0.0345324 0 0)             (0.0411271 0 0)             (0.450634 0 0)
          4.1             (0.000176295 0 0)             (0.0222235 0 0)             (0.0389401 0 0)             (0.0662099 0 0)             (0.452931 0 0)
          4.2             (0.00120908 0 0)             (0.0252292 0 0)             (0.0534444 0 0)             (0.107997 0 0)             (0.454223 0 0)
          4.3             (0.000769206 0 0)             (0.0270495 0 0)             (0.0745309 0 0)             (0.311229 0 0)             (0.453992 0 0)
          4.4             (0.00267933 0 0)             (0.0385928 0 0)             (0.122982 0 0)             (0.450542 0 0)             (0.454145 0 0)
          4.5             (0.00683956 0 0)             (0.0685441 0 0)             (0.407534 0 0)             (0.445458 0 0)             (0.454132 0 0)
          4.6             (0.00645435 0 0)             (0.199241 0 0)             (0.424531 0 0)             (0.438679 0 0)             (0.454182 0 0)
          4.7             (0.0128066 0 0)             (0.387363 0 0)             (0.415934 0 0)             (0.43792 0 0)             (0.454417 0 0)
          4.8             (0.180562 0 0)             (0.363441 0 0)             (0.409154 0 0)             (0.434662 0 0)             (0.454155 0 0)
          4.9             (0.00104384 0 0)             (0.27944 0 0)             (0.388639 0 0)             (0.43267 0 0)             (0.46911 0 0)
            5             (0.00148222 0 0)             (0.0141522 0 0)             (0.362468 0 0)             (0.421536 0 0)             (0.454309 0 0)
          5.1             (0.00074541 0 0)             (0.0186721 0 0)             (0.176821 0 0)             (0.405686 0 0)             (0.453579 0 0)
          5.2             (0.000407077 0 0)             (0.017889 0 0)             (0.0370558 0 0)             (0.366391 0 0)             (0.473422 0 0)
          5.3             (0.000866983 0 0)             (0.0200268 0 0)             (0.0447598 0 0)             (0.145558 0 0)             (0.457819 0 0)
          5.4             (0.00117855 0 0)             (0.0235346 0 0)             (0.0488129 0 0)             (0.0903293 0 0)             (0.451432 0 0)
          5.5             (0.00367309 0 0)             (0.025642 0 0)             (0.0642566 0 0)             (0.129933 0 0)             (0.456966 0 0)
          5.6             (0.00216375 0 0)             (0.0342531 0 0)             (0.0848392 0 0)             (0.361168 0 0)             (0.45867 0 0)
          5.7             (0.00420089 0 0)             (0.0491469 0 0)             (0.146803 0 0)             (0.439443 0 0)             (0.455453 0 0)
          5.8             (0.006424 0 0)             (0.0785407 0 0)             (0.394623 0 0)             (0.439255 0 0)             (0.455477 0 0)
          5.9             (0.00895088 0 0)             (0.246184 0 0)             (0.414799 0 0)             (0.43627 0 0)             (0.456591 0 0)
            6             (0.0264865 0 0)             (0.371146 0 0)             (0.407951 0 0)             (0.434669 0 0)             (0.455442 0 0)
          6.1             (0.0437904 0 0)             (0.340689 0 0)             (0.395594 0 0)             (0.433904 0 0)             (0.455676 0 0)
          6.2             (0.00241849 0 0)             (0.224423 0 0)             (0.378703 0 0)             (0.42908 0 0)             (0.455422 0 0)
          6.3             (0.00181644 0 0)             (0.0210014 0 0)             (0.336676 0 0)             (0.415639 0 0)             (0.460306 0 0)
          6.4             (0.000638643 0 0)             (0.0231296 0 0)             (0.0900835 0 0)             (0.396797 0 0)             (0.455199 0 0)
          6.5             (0.00281658 0 0)             (0.0255825 0 0)             (0.0501537 0 0)             (0.333065 0 0)             (0.474204 0 0)
          6.6             (0.00406113 0 0)             (0.0267949 0 0)             (0.0540526 0 0)             (0.0832805 0 0)             (0.454401 0 0)
          6.7             (0.00281562 0 0)             (0.0296068 0 0)             (0.0618116 0 0)             (0.115412 0 0)             (0.453404 0 0)
          6.8             (0.00295981 0 0)             (0.0322029 0 0)             (0.0780664 0 0)             (0.16788 0 0)             (0.456005 0 0)
          6.9             (0.0037047 0 0)             (0.0431958 0 0)             (0.108388 0 0)             (0.429562 0 0)             (0.470727 0 0)
            7             (0.00667079 0 0)             (0.0596782 0 0)             (0.231492 0 0)             (0.437412 0 0)             (0.477371 0 0)
          7.1             (0.00813363 0 0)             (0.102736 0 0)             (0.408754 0 0)             (0.432861 0 0)             (0.456678 0 0)
          7.2             (0.0165839 0 0)             (0.373156 0 0)             (0.404068 0 0)             (0.431746 0 0)             (0.45715 0 0)
          7.3             (0.0679671 0 0)             (0.351047 0 0)             (0.393949 0 0)             (0.431651 0 0)             (0.456908 0 0)
          7.4             (0.00255184 0 0)             (0.300466 0 0)             (0.383002 0 0)             (0.427528 0 0)             (0.470639 0 0)
          7.5             (0.00253386 0 0)             (0.0306355 0 0)             (0.361947 0 0)             (0.418333 0 0)             (0.459421 0 0)
          7.6             (0.00196159 0 0)             (0.0259959 0 0)             (0.303142 0 0)             (0.406057 0 0)             (0.456062 0 0)
          7.7             (0.000429129 0 0)             (0.0257451 0 0)             (0.0516058 0 0)             (0.372043 0 0)             (0.468559 0 0)
          7.8             (0.00179811 0 0)             (0.0244064 0 0)             (0.0594536 0 0)             (0.176995 0 0)             (0.458089 0 0)
          7.9             (0.00351131 0 0)             (0.0299115 0 0)             (0.0639923 0 0)             (0.105895 0 0)             (0.47702 0 0)
            8             (0.00190654 0 0)             (0.0340557 0 0)             (0.0757464 0 0)             (0.144631 0 0)             (0.452476 0 0)
          8.1             (0.00316845 0 0)             (0.0435433 0 0)             (0.0934574 0 0)             (0.267699 0 0)             (0.458226 0 0)
          8.2             (0.00405227 0 0)             (0.0530884 0 0)             (0.146851 0 0)             (0.440919 0 0)             (0.457026 0 0)
          8.3             (0.00694881 0 0)             (0.0755811 0 0)             (0.414477 0 0)             (0.437748 0 0)             (0.464667 0 0)
          8.4             (0.0103436 0 0)             (0.153047 0 0)             (0.404211 0 0)             (0.432995 0 0)             (0.458108 0 0)
          8.5             (0.0226776 0 0)             (0.357915 0 0)             (0.396953 0 0)             (0.428473 0 0)             (0.458047 0 0)
          8.6             (0.0996858 0 0)             (0.328939 0 0)             (0.384759 0 0)             (0.423839 0 0)             (0.457887 0 0)
          8.7             (0.00265469 0 0)             (0.261099 0 0)             (0.367312 0 0)             (0.420604 0 0)             (0.479255 0 0)
          8.8             (0.00237212 0 0)             (0.0248877 0 0)             (0.330014 0 0)             (0.412348 0 0)             (0.462374 0 0)
          8.9             (0.00156893 0 0)             (0.026765 0 0)             (0.131006 0 0)             (0.395335 0 0)             (0.458094 0 0)
            9             (0.00128017 0 0)             (0.0296619 0 0)             (0.0643395 0 0)             (0.341333 0 0)             (0.47748 0 0)
          9.1             (0.00240857 0 0)             (0.0346142 0 0)             (0.0695379 0 0)             (0.112458 0 0)             (0.481071 0 0)
          9.2             (0.00318736 0 0)             (0.038212 0 0)             (0.0763802 0 0)             (0.13203 0 0)             (0.444963 0 0)
          9.3             (0.00483221 0 0)             (0.0425985 0 0)             (0.0928172 0 0)             (0.196123 0 0)             (0.47227 0 0)
          9.4             (0.0046253 0 0)             (0.0506149 0 0)             (0.125467 0 0)             (0.436434 0 0)             (0.475891 0 0)
          9.5             (0.00506066 0 0)             (0.065832 0 0)             (0.216921 0 0)             (0.433156 0 0)             (0.46966 0 0)
          9.6             (0.00746418 0 0)             (0.113824 0 0)             (0.397535 0 0)             (0.430809 0 0)             (0.470388 0 0)
          9.7             (0.0164455 0 0)             (0.353213 0 0)             (0.390517 0 0)             (0.426177 0 0)             (0.465817 0 0)
          9.8             (0.0580894 0 0)             (0.331643 0 0)             (0.381294 0 0)             (0.42439 0 0)             (0.459056 0 0)
          9.9             (0.00435802 0 0)             (0.278709 0 0)             (0.368829 0 0)             (0.421783 0 0)             (0.45976 0 0)
           10             (0.00289469 0 0)             (0.0507587 0 0)             (0.34251 0 0)             (0.415331 0 0)             (0.459107 0 0)
         10.1             (0.00231185 0 0)             (0.0326334 0 0)             (0.271448 0 0)             (0.402676 0 0)             (0.477536 0 0)
         10.2             (0.00146946 0 0)             (0.0354711 0 0)             (0.0709956 0 0)             (0.363097 0 0)             (0.459412 0 0)
         10.3             (0.0031115 0 0)             (0.0372358 0 0)             (0.0761082 0 0)             (0.148897 0 0)             (0.459075 0 0)
         10.4             (0.00338014 0 0)             (0.0399493 0 0)             (0.0821511 0 0)             (0.136463 0 0)             (0.452718 0 0)
         10.5             (0.00394078 0 0)             (0.0452099 0 0)             (0.0943117 0 0)             (0.178473 0 0)             (0.460785 0 0)
         10.6             (0.00458378 0 0)             (0.0506948 0 0)             (0.118476 0 0)             (0.353221 0 0)             (0.464462 0 0)
         10.7             (0.00648647 0 0)             (0.0612076 0 0)             (0.183104 0 0)             (0.431032 0 0)             (0.46004 0 0)
         10.8             (0.00780154 0 0)             (0.0969009 0 0)             (0.393908 0 0)             (0.430217 0 0)             (0.460984 0 0)
         10.9             (0.0169745 0 0)             (0.217976 0 0)             (0.387452 0 0)             (0.425332 0 0)             (0.461025 0 0)
           11             (0.0285486 0 0)             (0.32904 0 0)             (0.379374 0 0)             (0.42151 0 0)             (0.481177 0 0)
         11.1             (0.00435895 0 0)             (0.289836 0 0)             (0.36655 0 0)             (0.418822 0 0)             (0.468966 0 0)
         11.2             (0.00324934 0 0)             (0.183625 0 0)             (0.346657 0 0)             (0.413824 0 0)             (0.460253 0 0)
         11.3             (0.00283799 0 0)             (0.0337051 0 0)             (0.290475 0 0)             (0.404707 0 0)             (0.460487 0 0)
         11.4             (0.00108371 0 0)             (0.0377788 0 0)             (0.0711441 0 0)             (0.373733 0 0)             (0.459449 0 0)
         11.5             (0.00431896 0 0)             (0.0406471 0 0)             (0.08317 0 0)             (0.287065 0 0)             (0.469264 0 0)
         11.6             (0.00422938 0 0)             (0.0459512 0 0)             (0.0877614 0 0)             (0.141499 0 0)             (0.457538 0 0)
         11.7             (0.00540399 0 0)             (0.0478432 0 0)             (0.0991972 0 0)             (0.176462 0 0)             (0.475691 0 0)
         11.8             (0.0047496 0 0)             (0.0546777 0 0)             (0.118416 0 0)             (0.264429 0 0)             (0.482757 0 0)
         11.9             (0.00548048 0 0)             (0.0623488 0 0)             (0.174163 0 0)             (0.433081 0 0)             (0.481092 0 0)
           12             (0.00742341 0 0)             (0.0908117 0 0)             (0.391393 0 0)             (0.427888 0 0)             (0.464294 0 0)
         12.1             (0.015315 0 0)             (0.171535 0 0)             (0.38237 0 0)             (0.423868 0 0)             (0.461717 0 0)
         12.2             (0.0285851 0 0)             (0.323579 0 0)             (0.37426 0 0)             (0.419193 0 0)             (0.461826 0 0)
         12.3             (0.0829434 0 0)             (0.286939 0 0)             (0.361623 0 0)             (0.417428 0 0)             (0.468482 0 0)
         12.4             (0.00333696 0 0)             (0.205161 0 0)             (0.346221 0 0)             (0.411801 0 0)             (0.46222 0 0)
         12.5             (0.00296126 0 0)             (0.036098 0 0)             (0.294039 0 0)             (0.403699 0 0)             (0.47885 0 0)
         12.6             (0.00176867 0 0)             (0.0407132 0 0)             (0.0851747 0 0)             (0.375548 0 0)             (0.462072 0 0)
         12.7             (0.00451936 0 0)             (0.0443314 0 0)             (0.0889781 0 0)             (0.300067 0 0)             (0.463845 0 0)
         12.8             (0.00528195 0 0)             (0.0492506 0 0)             (0.0956198 0 0)             (0.147971 0 0)             (0.458789 0 0)
         12.9             (0.00478267 0 0)             (0.0524201 0 0)             (0.106115 0 0)             (0.184955 0 0)             (0.472429 0 0)
           13             (0.0050251 0 0)             (0.0570005 0 0)             (0.124871 0 0)             (0.262333 0 0)             (0.467672 0 0)
         13.1             (0.0059888 0 0)             (0.0652807 0 0)             (0.17342 0 0)             (0.431275 0 0)             (0.46314 0 0)
         13.2             (0.00835263 0 0)             (0.0933974 0 0)             (0.370055 0 0)             (0.425688 0 0)             (0.46698 0 0)
         13.3             (0.0135323 0 0)             (0.160276 0 0)             (0.376603 0 0)             (0.421929 0 0)             (0.471573 0 0)
         13.4             (0.0309588 0 0)             (0.315039 0 0)             (0.368007 0 0)             (0.41732 0 0)             (0.463826 0 0)
         13.5             (0.107283 0 0)             (0.277304 0 0)             (0.356146 0 0)             (0.414475 0 0)             (0.484526 0 0)
         13.6             (0.00398913 0 0)             (0.202692 0 0)             (0.339516 0 0)             (0.409376 0 0)             (0.462949 0 0)
         13.7             (0.00309315 0 0)             (0.0406557 0 0)             (0.290647 0 0)             (0.401234 0 0)             (0.463381 0 0)
         13.8             (0.00351871 0 0)             (0.0437575 0 0)             (0.115076 0 0)             (0.372316 0 0)             (0.46297 0 0)
         13.9             (0.00440972 0 0)             (0.0490806 0 0)             (0.095318 0 0)             (0.305225 0 0)             (0.464115 0 0)
           14             (0.00571701 0 0)             (0.0517988 0 0)             (0.103896 0 0)             (0.161405 0 0)             (0.464403 0 0)
         14.1             (0.00572898 0 0)             (0.0560377 0 0)             (0.114845 0 0)             (0.194549 0 0)             (0.463149 0 0)
         14.2             (0.00573898 0 0)             (0.0610508 0 0)             (0.132367 0 0)             (0.271798 0 0)             (0.464705 0 0)
         14.3             (0.00630953 0 0)             (0.0695037 0 0)             (0.181925 0 0)             (0.425768 0 0)             (0.46437 0 0)
         14.4             (0.00822134 0 0)             (0.0961711 0 0)             (0.346441 0 0)             (0.423023 0 0)             (0.468883 0 0)
         14.5             (0.0138255 0 0)             (0.168743 0 0)             (0.368488 0 0)             (0.418525 0 0)             (0.464548 0 0)
         14.6             (0.0232567 0 0)             (0.302443 0 0)             (0.360376 0 0)             (0.415007 0 0)             (0.468086 0 0)
         14.7             (0.065364 0 0)             (0.264387 0 0)             (0.349233 0 0)             (0.411641 0 0)             (0.464872 0 0)
         14.8             (0.00373572 0 0)             (0.188138 0 0)             (0.330826 0 0)             (0.406099 0 0)             (0.465043 0 0)
         14.9             (0.00412057 0 0)             (0.0459744 0 0)             (0.278358 0 0)             (0.397635 0 0)             (0.481108 0 0)
           15             (0.00565974 0 0)             (0.0493731 0 0)             (0.103807 0 0)             (0.370473 0 0)             (0.466066 0 0)
         15.1             (0.00494487 0 0)             (0.0545789 0 0)             (0.10563 0 0)             (0.291246 0 0)             (0.465134 0 0)
         15.2             (0.0055686 0 0)             (0.0576438 0 0)             (0.113807 0 0)             (0.177657 0 0)             (0.487936 0 0)
         15.3             (0.00689554 0 0)             (0.0610946 0 0)             (0.124625 0 0)             (0.213687 0 0)             (0.463323 0 0)
         15.4             (0.00648446 0 0)             (0.0660157 0 0)             (0.145169 0 0)             (0.304498 0 0)             (0.468885 0 0)
         15.5             (0.00749298 0 0)             (0.0751573 0 0)             (0.19861 0 0)             (0.421611 0 0)             (0.466304 0 0)
         15.6             (0.00781652 0 0)             (0.107361 0 0)             (0.366967 0 0)             (0.418579 0 0)             (0.477829 0 0)
         15.7             (0.0154553 0 0)             (0.200006 0 0)             (0.359107 0 0)             (0.413927 0 0)             (0.46632 0 0)
         15.8             (0.0265716 0 0)             (0.284603 0 0)             (0.351096 0 0)             (0.411724 0 0)             (0.470404 0 0)
         15.9             (0.0217554 0 0)             (0.245741 0 0)             (0.340885 0 0)             (0.408576 0 0)             (0.469749 0 0)
           16             (0.00423333 0 0)             (0.139797 0 0)             (0.317727 0 0)             (0.402654 0 0)             (0.466365 0 0)
         16.1             (0.004581 0 0)             (0.0517598 0 0)             (0.261996 0 0)             (0.391906 0 0)             (0.479017 0 0)
         16.2             (0.0059235 0 0)             (0.0559935 0 0)             (0.108866 0 0)             (0.355941 0 0)             (0.486513 0 0)
         16.3             (0.00582946 0 0)             (0.0599834 0 0)             (0.116182 0 0)             (0.242665 0 0)             (0.480263 0 0)
         16.4             (0.00605969 0 0)             (0.062239 0 0)             (0.12492 0 0)             (0.195746 0 0)             (0.466462 0 0)
         16.5             (0.0065159 0 0)             (0.0655498 0 0)             (0.135461 0 0)             (0.241215 0 0)             (0.466428 0 0)
         16.6             (0.00680439 0 0)             (0.0711173 0 0)             (0.160188 0 0)             (0.37392 0 0)             (0.472933 0 0)
         16.7             (0.00847264 0 0)             (0.0846994 0 0)             (0.223098 0 0)             (0.416958 0 0)             (0.467217 0 0)
         16.8             (0.0105052 0 0)             (0.125557 0 0)             (0.354765 0 0)             (0.413991 0 0)             (0.467393 0 0)
         16.9             (0.018527 0 0)             (0.26124 0 0)             (0.350269 0 0)             (0.410048 0 0)             (0.481753 0 0)
           17             (0.0441184 0 0)             (0.26603 0 0)             (0.341172 0 0)             (0.40825 0 0)             (0.467487 0 0)
         17.1             (0.00635971 0 0)             (0.216449 0 0)             (0.33036 0 0)             (0.404594 0 0)             (0.468045 0 0)
         17.2             (0.00518264 0 0)             (0.0680308 0 0)             (0.301276 0 0)             (0.398476 0 0)             (0.469697 0 0)
         17.3             (0.00559216 0 0)             (0.0581714 0 0)             (0.222764 0 0)             (0.382351 0 0)             (0.487017 0 0)
         17.4             (0.00632904 0 0)             (0.0621528 0 0)             (0.122264 0 0)             (0.336421 0 0)             (0.485537 0 0)
         17.5             (0.00649684 0 0)             (0.0650414 0 0)             (0.127481 0 0)             (0.19613 0 0)             (0.467402 0 0)
         17.6             (0.00676554 0 0)             (0.0670287 0 0)             (0.136663 0 0)             (0.219075 0 0)             (0.483324 0 0)
         17.7             (0.00695388 0 0)             (0.0711857 0 0)             (0.148829 0 0)             (0.275514 0 0)             (0.469141 0 0)
         17.8             (0.00770301 0 0)             (0.0775928 0 0)             (0.183312 0 0)             (0.41191 0 0)             (0.471404 0 0)
         17.9             (0.0084264 0 0)             (0.0978547 0 0)             (0.284009 0 0)             (0.412488 0 0)             (0.484668 0 0)
           18             (0.01251 0 0)             (0.151125 0 0)             (0.345688 0 0)             (0.409144 0 0)             (0.469319 0 0)
         18.1             (0.0234644 0 0)             (0.265884 0 0)             (0.340042 0 0)             (0.406832 0 0)             (0.469256 0 0)
         18.2             (0.0626811 0 0)             (0.24213 0 0)             (0.331297 0 0)             (0.404461 0 0)             (0.481037 0 0)
         18.3             (0.00663868 0 0)             (0.177098 0 0)             (0.316348 0 0)             (0.400465 0 0)             (0.487772 0 0)
         18.4             (0.00589372 0 0)             (0.0644792 0 0)             (0.273937 0 0)             (0.392173 0 0)             (0.469098 0 0)
         18.5             (0.00664528 0 0)             (0.0643885 0 0)             (0.147718 0 0)             (0.367655 0 0)             (0.46948 0 0)
         18.6             (0.00689128 0 0)             (0.0678824 0 0)             (0.132836 0 0)             (0.299886 0 0)             (0.477762 0 0)
         18.7             (0.00691776 0 0)             (0.0698715 0 0)             (0.139168 0 0)             (0.2172 0 0)             (0.468422 0 0)
         18.8             (0.00725286 0 0)             (0.0722627 0 0)             (0.147814 0 0)             (0.248907 0 0)             (0.466389 0 0)
         18.9             (0.00752286 0 0)             (0.0771738 0 0)             (0.166941 0 0)             (0.334872 0 0)             (0.472846 0 0)
           19             (0.00843678 0 0)             (0.0874392 0 0)             (0.217602 0 0)             (0.409098 0 0)             (0.488843 0 0)
         19.1             (0.0100705 0 0)             (0.118846 0 0)             (0.336649 0 0)             (0.407987 0 0)             (0.469886 0 0)
         19.2             (0.0166307 0 0)             (0.211669 0 0)             (0.336519 0 0)             (0.40499 0 0)             (0.470678 0 0)
         19.3             (0.0338742 0 0)             (0.248139 0 0)             (0.329641 0 0)             (0.403565 0 0)             (0.471097 0 0)
         19.4             (0.00900222 0 0)             (0.20885 0 0)             (0.320155 0 0)             (0.40049 0 0)             (0.470505 0 0)
         19.5             (0.00660844 0 0)             (0.0981055 0 0)             (0.295554 0 0)             (0.395279 0 0)             (0.472502 0 0)