# Probe 0 (1 0 0)
# Probe 1 (10 0 0)
# Probe 2 (20 0 0)
# Probe 3 (30 0 0)
# Probe 4 (40 0 0)
#       Probe             0             1             2             3             4
#        Time
            0         0.153         0.153         0.153         0.153         0.153
          0.1      0.153013      0.153013      0.153015      0.153019      0.167436
          0.2      0.153018      0.153018      0.153019      0.165088      0.166889
          0.3      0.153091      0.153018      0.153021      0.165238      0.166435
          0.4       0.15309      0.153093      0.166194      0.165226      0.166111
          0.5       0.15309      0.153094      0.165678      0.165221      0.165907
          0.6       0.15309      0.165156      0.165352      0.165188      0.165772
          0.7      0.153918      0.165221      0.165215      0.165128      0.165668
          0.8      0.175783      0.165237      0.165181      0.165087      0.165847
          0.9      0.175727      0.167424      0.165228       0.16506      0.165748
            1      0.175713      0.175374      0.165313      0.165116      0.166967
          1.1      0.175748      0.175337       0.17496      0.165617      0.167408
          1.2      0.175771      0.175301       0.17497      0.166402      0.167572
          1.3      0.175777      0.175289      0.175044      0.176688      0.168107
          1.4      0.175785      0.175289      0.175265      0.176728      0.169394
          1.5      0.175795      0.175297       0.17562      0.176759      0.188055
          1.6      0.175802      0.175422      0.176238      0.178879      0.187919
          1.7      0.175818      0.175834      0.177001      0.186066      0.187826
          1.8       0.17619      0.176567      0.186004       0.18593       0.18781
          1.9      0.176927      0.177536      0.186053      0.185894      0.187733
            2       0.17823      0.186732      0.186037      0.185927      0.187699
          2.1      0.181561      0.186769      0.186063      0.185966      0.187705
          2.2      0.196444      0.187225       0.18641      0.186192      0.187869
          2.3      0.196474      0.191749       0.18698      0.186652      0.188201
          2.4      0.196494      0.196174      0.187939      0.187172      0.188623
          2.5      0.196535      0.196213      0.196122      0.187868      0.188991
          2.6      0.196541      0.196226      0.196246      0.189812      0.189623
          2.7      0.196551      0.196349      0.196436      0.197035      0.190722
          2.8      0.196587      0.196509      0.196768      0.197371      0.197667
          2.9      0.196809      0.196684      0.197172      0.198231      0.207356
            3      0.196951      0.197113      0.197689      0.206193      0.207257
          3.1      0.197313      0.197607      0.199616      0.206287      0.207337
          3.2      0.198024      0.198218      0.206528      0.206353      0.207454
          3.3      0.198862      0.203687      0.206568      0.206419      0.207552
          3.4      0.201129      0.206993      0.206614      0.206475      0.207814
          3.5      0.216283       0.20746        0.2068      0.206537      0.207917
          3.6      0.216285      0.209854      0.207172      0.206788      0.208117
          3.7      0.216325      0.215782      0.207863      0.207267      0.208409
          3.8      0.216364      0.215829      0.211443      0.207857       0.20882
          3.9      0.216372      0.215848      0.215994      0.209034      0.209496
            4      0.216381       0.21603      0.216054      0.216951      0.210492
          4.1      0.216393       0.21617      0.216419      0.217009      0.217088
          4.2      0.216408      0.216397      0.216795      0.217652      0.227072
          4.3      0.216551      0.216841      0.217317      0.221541      0.226904
          4.4      0.217099      0.217301      0.218641      0.225363      0.226818
          4.5      0.217676      0.217997      0.225398      0.225445      0.226794
          4.6      0.218553      0.223031      0.225484      0.225534       0.22677
          4.7      0.219991      0.226353      0.225723      0.225637      0.226965
          4.8      0.229139       0.22674      0.226068        0.2258      0.227089
          4.9      0.235238      0.228367       0.22647      0.226132       0.22731
            5      0.235317      0.234353       0.22723      0.226539      0.227645
          5.1      0.235391      0.234522       0.23226      0.227173      0.228159
          5.2       0.23542      0.234668      0.234754      0.228246      0.228784
          5.3      0.235436      0.234908      0.234884      0.233273      0.229952
          5.4      0.235456      0.235161        0.2353      0.235892      0.236436
          5.5      0.235481      0.235449      0.235667      0.236593      0.244691
          5.6      0.235703      0.235846      0.236342      0.241749      0.244909
          5.7      0.236184      0.236409      0.237763      0.243624      0.244929
          5.8      0.236748      0.237195      0.242519      0.243756      0.245024
          5.9       0.23772      0.242547      0.243971      0.243902      0.245197
            6      0.239574      0.244798      0.244186      0.244117      0.245409
          6.1      0.249905      0.245285      0.244524      0.244366      0.245579
          6.2      0.252459      0.247843      0.245073      0.244734      0.245836
          6.3      0.252565      0.251633      0.245994      0.245178      0.246183
          6.4      0.252646      0.252488      0.251945      0.245949      0.246727
          6.5      0.252675      0.252704      0.252857      0.247635      0.247596
          6.6      0.252957      0.252958       0.25302      0.253199      0.248788
          6.7      0.253197      0.253275      0.253432      0.254009      0.255617
          6.8      0.253522       0.25362      0.253908      0.255129      0.261829
          6.9      0.253934      0.254105      0.254707      0.260837      0.262197
            7      0.254432      0.254722      0.257173      0.261187      0.262392
          7.1      0.255113      0.255764      0.261408      0.261377       0.26246
          7.2      0.256288      0.260898      0.261679       0.26154      0.262673
          7.3      0.259791      0.262432      0.261985      0.261811      0.262904
          7.4      0.269336      0.263241      0.262444      0.262118      0.263162
          7.5      0.269459      0.267044      0.263107      0.262507       0.26349
          7.6      0.269579      0.269469      0.264475       0.26307      0.263905
          7.7      0.269664      0.269659       0.26998      0.264033      0.264581
          7.8      0.269964      0.269966      0.270075      0.268177       0.26539
          7.9      0.270258      0.270315      0.270445      0.270873      0.267274
            8      0.270601      0.270659      0.270961      0.271518       0.27825
          8.1      0.270995      0.271082      0.271598      0.274374      0.278915
          8.2      0.271444      0.271665      0.272612      0.277897      0.278982
          8.3      0.272093       0.27247      0.277338      0.278088      0.279162
          8.4      0.272931      0.274382      0.278513      0.278273      0.279375
          8.5      0.274582      0.279254      0.278738      0.278526      0.279612
          8.6      0.282939      0.279695      0.279126      0.278833      0.279873
          8.7      0.285907      0.280925      0.279654      0.279203      0.280186
          8.8      0.286055      0.285714      0.280508      0.279717      0.280567
          8.9      0.286183      0.286061      0.284378      0.280443      0.281151
            9      0.286316      0.286371      0.286423      0.281826      0.281851
          9.1      0.286659      0.286725      0.286818      0.287073      0.283195
          9.2      0.287019      0.287049       0.28726      0.287756      0.288997
          9.3      0.287374      0.287494      0.287795      0.288953      0.294658
          9.4      0.287885      0.288023      0.288627      0.294035      0.294905
          9.5      0.288434      0.288685      0.290668      0.294234      0.295167
          9.6      0.289132      0.289784      0.294493       0.29445      0.295344
          9.7      0.290376      0.295196       0.29474      0.294712      0.295649
          9.8      0.293793      0.295606      0.295037      0.295002        0.2959
          9.9      0.301583      0.296448       0.29551      0.295395      0.296182
           10      0.301744      0.301564      0.296216      0.295826      0.296616
         10.1      0.301902      0.301767      0.297834      0.296472      0.297018
         10.2      0.302004      0.302091       0.30215      0.297518      0.297725
         10.3      0.302352      0.302453      0.302454       0.30261      0.298926
         10.4      0.302803      0.302789       0.30288      0.303416      0.300936
         10.5      0.303177      0.303222      0.303379      0.304355      0.310404
         10.6      0.303638      0.303767      0.304106      0.307917      0.310403
         10.7      0.304175      0.304381      0.305539       0.30973      0.310549
         10.8      0.304837      0.305267      0.310013       0.30996      0.310695
         10.9       0.30588      0.308639      0.310236      0.310164      0.310951
           11      0.307999       0.31102       0.31053      0.310448      0.311276
         11.1      0.316871      0.311683      0.310936      0.310774      0.311694
         11.2      0.317117      0.313833      0.311599       0.31121      0.312024
         11.3      0.317294      0.316889       0.31273      0.311776      0.312481
         11.4       0.31742      0.317202      0.317372      0.312705      0.313124
         11.5      0.317572      0.317616      0.317646      0.315134       0.31419
         11.6      0.317988      0.317946      0.318111      0.318458      0.315842
         11.7      0.318422      0.318386      0.318607      0.319221      0.324964
         11.8      0.318872      0.318872      0.319281      0.321212      0.325136
         11.9      0.319419      0.319507        0.3204      0.324504      0.325443
           12      0.320053      0.320345      0.324834      0.324745      0.325673
         12.1      0.320981      0.322205      0.325268      0.324993      0.325871
         12.2      0.322795      0.325822      0.325594      0.325301      0.326215
         12.3      0.330105      0.326483      0.326018      0.325657      0.326546
         12.4      0.331683      0.328167      0.326649      0.326101      0.326905
         12.5      0.331881      0.331497       0.32773      0.326658       0.32741
         12.6      0.332033      0.331787      0.331763      0.327471      0.327964
         12.7      0.332245      0.332191      0.332537      0.329418      0.328932
         12.8      0.332648      0.332576      0.333007      0.333069      0.330432
         12.9        0.3331      0.333004      0.333503      0.333834      0.338145
           13      0.333565      0.333533      0.334128      0.335662      0.339416
         13.1      0.334116      0.334149      0.335181      0.338944      0.339789
         13.2      0.334741      0.334974      0.338973       0.33923      0.340035
         13.3      0.335645      0.336794      0.339807      0.339518      0.340252
         13.4      0.337323      0.340174       0.34014      0.339863      0.340557
         13.5      0.343941      0.340815       0.34055      0.340239      0.340967
         13.6      0.345542      0.342417      0.341138      0.340704      0.341323
         13.7      0.345755      0.345564      0.342163      0.341252      0.341874
         13.8      0.345981      0.345895      0.345868      0.342106      0.342425
         13.9      0.346374      0.346298      0.346704      0.344052      0.343319
           14      0.346819      0.346725      0.347165      0.347389      0.344906
         14.1      0.347288      0.347199      0.347685      0.348142      0.351284
         14.2      0.347769      0.347731      0.348348      0.349891      0.353267
         14.3      0.348332      0.348383      0.349428      0.352873      0.353602
         14.4      0.348972      0.349221      0.353164      0.353197      0.353808
         14.5       0.34986      0.351051      0.353724      0.353464      0.354134
         14.6      0.351655      0.354124       0.35407      0.353809      0.354518
         14.7      0.357568      0.354801      0.354488      0.354201      0.354862
         14.8      0.359054       0.35653      0.355091       0.35466      0.355328
         14.9      0.359289      0.359222      0.356142      0.355245      0.355776
           15      0.359604      0.359594      0.359643      0.356116       0.35647
         15.1      0.360057      0.359993      0.360283      0.358247      0.357444
         15.2      0.360534       0.36047      0.360753      0.361014        0.3591
         15.3      0.361017      0.360972      0.361284      0.361843      0.365414
         15.4      0.361532       0.36155      0.362033       0.36386      0.366616
         15.5      0.362115      0.362213      0.363218      0.366213       0.36691
         15.6      0.362795      0.363123      0.366658      0.366565      0.367193
         15.7       0.36374      0.365495      0.366984      0.366876      0.367585
         15.8      0.365808      0.367671      0.367344      0.367265      0.367934
         15.9      0.371732       0.36847      0.367819      0.367701      0.368386
           16      0.372184      0.370731      0.368515      0.368212      0.368765
         16.1      0.372455       0.37256      0.369842       0.36884       0.36935
         16.2      0.372849      0.372964      0.372951      0.369844       0.37002
         16.3      0.373345      0.373401      0.373439       0.37262      0.371096
         16.4      0.373836      0.373919      0.373926      0.374328      0.373059
         16.5      0.374347      0.374449      0.374522      0.375279      0.378854
         16.6      0.374896      0.375049      0.375292      0.378011      0.379449
         16.7      0.375516      0.375764      0.376805      0.379199       0.37981
         16.8      0.376234      0.376816      0.379511      0.379557      0.380148
         16.9      0.377349      0.379826      0.379926      0.379905       0.38056
           17      0.380176      0.380882       0.38037      0.380331      0.380943
         17.1      0.384577      0.381865      0.380939      0.380793      0.381379
         17.2      0.384936      0.384802      0.381732      0.381341      0.381939
         17.3      0.385259      0.385466      0.383537       0.38206      0.382478
         17.4      0.385741      0.385916       0.38575      0.383316      0.383269
         17.5      0.386254      0.386408      0.386269      0.386503      0.384565
         17.6      0.386774      0.386949      0.386819       0.38726      0.387802
         17.7      0.387312      0.387527      0.387491      0.388478       0.39155
         17.8      0.387898      0.388165       0.38845      0.391307      0.392024
         17.9      0.388562      0.388966      0.390695      0.391799      0.392357
           18      0.389362      0.390363      0.392219      0.392172      0.392813
         18.1      0.390798      0.393046      0.392669      0.392593      0.393186
         18.2      0.395138      0.393806      0.393161       0.39306      0.393647
         18.3      0.397001      0.395198      0.393807      0.393579      0.394155
         18.4      0.397379      0.397629      0.394813       0.39419      0.394755
         18.5      0.397794      0.398125      0.397503      0.395047      0.395387
         18.6      0.398323       0.39861      0.398344      0.396882      0.396365
         18.7      0.398859      0.399154      0.398899      0.399134      0.397905
         18.8      0.399403      0.399723      0.399511       0.40005      0.402714
         18.9      0.399973      0.400342      0.400295      0.401931       0.40383
           19      0.400602      0.401024      0.401554      0.403689      0.404283
         19.1      0.401307      0.401976      0.404123      0.404154      0.404643
         19.2      0.402317      0.404123      0.404653      0.404568      0.405101
         19.3      0.404546      0.405594      0.405143      0.405045      0.405583
         19.4      0.408589      0.406556      0.405726      0.405557      0.406101
         19.5      0.409122      0.408937      0.406523      0.406133      0.406579
         19.6      0.409523      0.409894      0.408085      0.406848       0.40718
         19.7      0.410042      0.410395      0.410157      0.408026      0.407982
         19.8      0.410591      0.410918      0.410759      0.410628      0.409226
         19.9      0.411146      0.411487      0.411354      0.411606      0.411965
           20      0.411718      0.412084      0.412058      0.412814      0.415233
         20.1      0.412329      0.412728      0.413019      0.415163      0.415829
         20.2       0.41301      0.413524      0.414998      0.415778       0.41618
         20.3      0.413827      0.414895      0.416315      0.416224      0.416646
         20.4      0.415284      0.417076      0.416835        0.4167      0.417127
         20.5       0.41903       0.41793      0.417387      0.417219      0.417635
         20.6      0.420502      0.419425      0.418092      0.417787      0.418152
         20.7      0.420959      0.421226      0.419232      0.418442      0.418728
         20.8      0.421445      0.421784      0.421536      0.419392      0.419434
         20.9      0.422013      0.422316      0.422304      0.421324       0.42042
           21       0.42258      0.422891      0.422888      0.422991      0.422317
         21.1      0.423157      0.423492      0.423531      0.423965      0.425983
         21.2      0.423767      0.424129      0.424349      0.425932      0.426975
         21.3      0.424429      0.424864      0.425759      0.427085      0.427445
         21.4      0.425173      0.425935      0.427596      0.427585      0.427932
         21.5      0.426316      0.428047       0.42819      0.428059      0.428439
         21.6      0.428987      0.429092      0.428745      0.428579      0.428973
         21.7      0.431512      0.430195      0.429382      0.429132       0.42951
         21.8      0.432085      0.432139      0.430282      0.429745      0.430101
         21.9      0.432568       0.43285      0.432104      0.430543      0.430787
           22      0.433141      0.433401      0.433344      0.431963      0.431626
         22.1      0.433724      0.433979      0.433962      0.433901      0.433127
         22.2      0.434309      0.434587      0.434605      0.434851      0.436236
         22.3      0.434918      0.435231      0.435398      0.436381      0.437875
         22.4      0.435574      0.435951      0.436584       0.43793      0.438417
         22.5      0.436291      0.436898       0.43844       0.43849       0.43892
         22.6      0.437293      0.438672      0.439177       0.43895      0.439417
         22.7      0.439342      0.439975      0.439722      0.439448      0.439935
         22.8      0.442144       0.44095      0.440336      0.439987       0.44047
         22.9      0.442921      0.442665      0.441144      0.440583      0.441046
           23      0.443429       0.44363      0.442603      0.441339      0.441705
         23.1      0.444003      0.444208      0.444081      0.442602      0.442506
         23.2      0.444598      0.444791      0.444752      0.444506      0.443778
         23.3      0.445194      0.445404      0.445386      0.445545      0.446409
         23.4      0.445807      0.446043      0.446129      0.446822      0.448426
         23.5      0.446464      0.446738      0.447179      0.448404      0.449056
         23.6      0.447174      0.447648      0.448958      0.449096       0.44956
         23.7      0.448109      0.449221      0.449855      0.449614      0.450101
         23.8      0.449865      0.450609      0.450401      0.450155      0.450633
         23.9      0.452486      0.451556      0.450993      0.450727      0.451178
           24      0.453492      0.453048      0.451773      0.451345      0.451755
         24.1      0.454037      0.454151      0.453107      0.452091      0.452403
         24.2      0.454613      0.454767      0.454581      0.453224      0.453285
         24.3       0.45522      0.455361      0.455318      0.454944      0.454366
         24.4      0.455827       0.45598      0.455963      0.456079      0.456772
         24.5       0.45645      0.456625      0.456682      0.457342      0.458836
         24.6      0.457106      0.457319      0.457658      0.458862      0.459521
         24.7      0.457818      0.458184      0.459168      0.459627       0.46005
         24.8      0.458733      0.459644      0.460208      0.460179        0.4606
         24.9      0.460367      0.461016      0.460822      0.460739      0.461157
           25      0.462708      0.461976      0.461461      0.461328      0.461712
         25.1      0.463816      0.463334       0.46227      0.461961      0.462308
         25.2      0.464396      0.464437      0.463517      0.462711      0.462964
         25.3      0.464985      0.465086      0.464891      0.463825      0.463756
         25.4        0.4656      0.465694      0.465675      0.465461      0.464938
         25.5      0.466218      0.466323      0.466334      0.466594      0.467167
         25.6      0.466849      0.466975      0.467084       0.46776      0.468983
         25.7       0.46751      0.467677      0.468097      0.469125      0.469742
         25.8      0.468232      0.468511      0.469481      0.469917      0.470317
         25.9      0.469166      0.469785      0.470483      0.470493      0.470878
           26      0.470773      0.471118      0.471122      0.471066      0.471444
         26.1      0.472831      0.472185      0.471771      0.471667      0.472018
         26.2      0.473907      0.473506      0.472588       0.47232      0.472628
         26.3      0.474526      0.474551      0.473784      0.473097      0.473307
         26.4      0.475131      0.475223      0.475038      0.474211      0.474215
         26.5      0.475755      0.475847      0.475842      0.475633      0.475463
         26.6      0.476384       0.47648      0.476532      0.476764      0.477325
         26.7      0.477025      0.477137      0.477315      0.477972      0.478961
         26.8      0.477699      0.477861      0.478342      0.479177      0.479841
         26.9      0.478442      0.478761      0.479604      0.479947      0.480375
           27      0.479444      0.479999      0.480534      0.480539       0.48095
         27.1      0.481053      0.481217      0.481198      0.481126      0.481539
         27.2      0.482813      0.482303       0.48186      0.481738      0.482146
         27.3      0.483821      0.483508      0.482704      0.482396      0.482779
         27.4      0.484474      0.484479      0.483861      0.483201      0.483475
         27.5      0.485094      0.485172      0.485065      0.484371      0.484289
         27.6      0.485728      0.485808      0.485844      0.485632      0.485576
         27.7      0.486363      0.486456       0.48654      0.486764      0.487439
         27.8      0.487016      0.487131      0.487343      0.487977      0.488794
         27.9      0.487706      0.487879      0.488391      0.489019      0.489564
           28      0.488497      0.488823      0.489514      0.489748      0.490185
         28.1      0.489601      0.489996      0.490372      0.490357      0.490753
         28.2      0.491149      0.491126      0.491061      0.490958      0.491396
         28.3      0.492597      0.492224      0.491761      0.491591      0.491962
         28.4      0.493553      0.493312      0.492776      0.492295      0.492662
         28.5       0.49424      0.494208      0.493865      0.493178      0.493395
         28.6      0.494874      0.494912      0.494811      0.494294      0.494316
         28.7      0.495512      0.495564      0.495587      0.495454      0.495677
         28.8       0.49616      0.496216      0.496337      0.496549      0.497183
         28.9      0.496829      0.496912      0.497205      0.497726      0.498405
           29       0.49756      0.497738      0.498198      0.498618      0.499246
         29.1      0.498458      0.498807      0.499143      0.499336      0.500031
         29.2      0.499655      0.499811      0.499971      0.499986      0.500822
         29.3      0.500973      0.500862      0.500736      0.500625       0.50194
         29.4      0.502005      0.501874      0.501652      0.501349      0.503286
         29.5       0.50289      0.502777      0.502535      0.502207      0.504616
         29.6      0.503704      0.503549      0.503474      0.503132       0.50606
         29.7      0.504487      0.504319      0.504286      0.504176      0.507197
         29.8      0.505268      0.505121      0.505171       0.50512      0.508175
         29.9      0.506071      0.505985      0.506054      0.506014      0.508822
           30      0.506945      0.506869        0.5069      0.506856      0.509419
         30.1      0.507847      0.507767       0.50774      0.507666        0.5101
         30.2      0.508765      0.508671      0.508597      0.508471      0.510562
         30.3      0.509669      0.509575      0.509457      0.509282      0.511183
         30.4      0.510555      0.510443      0.510326      0.510105      0.511905
         30.5       0.51139      0.511302      0.511174      0.510979      0.512495
         30.6       0.51222      0.512128      0.512029       0.51188      0.513383
         30.7      0.513035      0.512957      0.512883       0.51276      0.514205
         30.8      0.513853      0.513786      0.513739      0.513632      0.515096
         30.9      0.514693      0.514629      0.514586      0.514493      0.515838
           31      0.515549      0.515484      0.515431      0.515339      0.516584
         31.1      0.516416      0.516346      0.516279      0.516171      0.517414
         31.2      0.517286      0.517211      0.517125      0.516998      0.518127
         31.3      0.518154      0.518071      0.517966      0.517826      0.518858
         31.4      0.519013      0.518928       0.51881       0.51866      0.519714
         31.5       0.51986      0.519767      0.519664      0.519512      0.520455
         31.6      0.520699      0.520601      0.520504      0.520366      0.521332
         31.7      0.521526      0.521436      0.521344      0.521214      0.522091
         31.8      0.522349      0.522261      0.522184      0.522063       0.52297
         31.9      0.523175      0.523091       0.52302      0.522909      0.523727
           32      0.524008      0.523926      0.523856      0.523747      0.524586
         32.1      0.524846      0.524765      0.524691      0.524576      0.525324
         32.2      0.525692      0.525607      0.525524      0.525402      0.526185
         32.3      0.526535      0.526447      0.526356      0.526224      0.526923
         32.4      0.527374      0.527286      0.527185       0.52705      0.527784
         32.5      0.528208      0.528115       0.52801      0.527878      0.528539
         32.6      0.529035       0.52894      0.528838      0.528708       0.52941
         32.7      0.529855       0.52976      0.529668      0.529542       0.53017
         32.8       0.53067      0.530583      0.530499      0.530376      0.531035
         32.9      0.531486      0.531401      0.531324      0.531206      0.531833
           33      0.532305      0.532223      0.532145      0.532032      0.532656
         33.1      0.533128      0.533044      0.532965       0.53285      0.533509
         33.2      0.533952      0.533868      0.533786      0.533667      0.534244
         33.3      0.534778      0.534693      0.534605      0.534481      0.535077
         33.4        0.5356      0.535512      0.535422      0.535294      0.535928
         33.5       0.53642       0.53633      0.536236      0.536109       0.53666
         33.6      0.537234      0.537145      0.537051      0.536924      0.537509
         33.7      0.538043      0.537957      0.537865      0.537742      0.538354
         33.8      0.538851      0.538764      0.538678      0.538557      0.539096
         33.9      0.539656       0.53957      0.539488      0.539374       0.53993
           34      0.540461      0.540377      0.540297      0.540184      0.540771
         34.1      0.541269      0.541186      0.541106      0.540993      0.541507
         34.2      0.542077      0.541995      0.541912      0.541797      0.542322
         34.3      0.542887      0.542802      0.542717        0.5426      0.543143
         34.4      0.543694      0.543608      0.543521      0.543401      0.543971
         34.5      0.544499      0.544413      0.544324      0.544202      0.544697
         34.6      0.545302      0.545215      0.545124      0.545005       0.54552
         34.7      0.546099      0.546012      0.545924      0.545806      0.546358
         34.8      0.546893      0.546808      0.546723      0.546608      0.547078
         34.9      0.547688      0.547603      0.547521      0.547409      0.547895
           35      0.548481      0.548399      0.548317      0.548207       0.54871
         35.1      0.549274      0.549193      0.549112      0.549002      0.549533
         35.2      0.550069      0.549987      0.549905      0.549795      0.550272
         35.3      0.550863       0.55078      0.550698      0.550586      0.551048