# Probe 0 (1 0 0)
# Probe 1 (10 0 0)
# Probe 2 (20 0 0)
# Probe 3 (30 0 0)
# Probe 4 (40 0 0)
#       Probe             0             1             2             3             4
#        Time
            0    5.2308e+06    5.2308e+06    5.2308e+06    5.2308e+06    5.2308e+06
          0.1   5.23116e+06   5.23116e+06   5.23096e+06    5.2308e+06   5.21696e+06
          0.2    5.2308e+06    5.2308e+06    5.2308e+06    5.2142e+06   5.21433e+06
          0.3   5.23072e+06    5.2308e+06    5.2308e+06    5.2134e+06   5.21439e+06
          0.4   5.23072e+06   5.23072e+06    5.2149e+06   5.21468e+06   5.21467e+06
          0.5    5.2307e+06   5.23067e+06   5.21306e+06   5.21411e+06   5.21421e+06
          0.6   5.23068e+06   5.21325e+06   5.21331e+06   5.21411e+06   5.21389e+06
          0.7   5.22925e+06   5.21404e+06   5.21412e+06   5.21444e+06   5.21422e+06
          0.8   5.19262e+06   5.21163e+06   5.21405e+06   5.21365e+06   5.21487e+06
          0.9   5.19328e+06   5.20618e+06   5.21067e+06   5.21258e+06    5.2141e+06
            1   5.19473e+06   5.19414e+06   5.20992e+06   5.21016e+06   5.21064e+06
          1.1   5.19429e+06   5.19402e+06   5.19385e+06    5.2093e+06   5.20984e+06
          1.2   5.19311e+06   5.19369e+06   5.19303e+06   5.20803e+06   5.20966e+06
          1.3   5.19319e+06   5.19305e+06   5.19276e+06   5.19331e+06   5.20843e+06
          1.4   5.19279e+06   5.19265e+06   5.19239e+06   5.19135e+06   5.20643e+06
          1.5   5.19227e+06   5.19231e+06   5.19176e+06   5.19002e+06   5.17202e+06
          1.6   5.19198e+06   5.19181e+06   5.19071e+06   5.18592e+06   5.17465e+06
          1.7    5.1914e+06   5.19107e+06   5.18943e+06   5.17459e+06   5.17614e+06
          1.8   5.19057e+06   5.18987e+06   5.17432e+06   5.17491e+06   5.17285e+06
          1.9    5.1895e+06   5.18823e+06   5.17468e+06   5.17538e+06   5.17544e+06
            2   5.18719e+06   5.17393e+06   5.17436e+06   5.17446e+06   5.17435e+06
          2.1   5.18312e+06   5.17225e+06   5.17359e+06   5.17385e+06   5.17438e+06
          2.2   5.15623e+06   5.17141e+06   5.17288e+06   5.17339e+06    5.1741e+06
          2.3   5.15712e+06   5.16417e+06   5.17196e+06    5.1727e+06    5.1734e+06
          2.4   5.15761e+06    5.1574e+06    5.1703e+06   5.17174e+06   5.17275e+06
          2.5   5.15603e+06   5.15624e+06   5.15616e+06   5.17051e+06   5.17168e+06
          2.6    5.1558e+06   5.15559e+06   5.15551e+06   5.16711e+06   5.17055e+06
          2.7   5.15532e+06   5.15528e+06   5.15518e+06   5.15441e+06   5.16847e+06
          2.8   5.15505e+06   5.15499e+06   5.15456e+06   5.15357e+06   5.15536e+06
          2.9   5.15465e+06   5.15466e+06   5.15382e+06   5.15185e+06   5.13894e+06
            3    5.1544e+06   5.15392e+06   5.15285e+06   5.13873e+06   5.13874e+06
          3.1   5.15378e+06   5.15301e+06   5.14931e+06   5.13799e+06   5.13612e+06
          3.2   5.15248e+06   5.15198e+06   5.13766e+06   5.13817e+06    5.1357e+06
          3.3   5.15109e+06    5.1416e+06   5.13745e+06   5.13752e+06   5.13497e+06
          3.4   5.14701e+06   5.13618e+06   5.13717e+06   5.13738e+06   5.13733e+06
          3.5   5.12278e+06   5.13536e+06   5.13649e+06    5.1371e+06   5.13778e+06
          3.6   5.12157e+06   5.13096e+06   5.13591e+06   5.13669e+06   5.13688e+06
          3.7   5.12067e+06   5.12101e+06   5.13474e+06   5.13588e+06   5.13481e+06
          3.8   5.12032e+06    5.1207e+06   5.12806e+06   5.13484e+06   5.13599e+06
          3.9   5.12013e+06   5.11998e+06   5.11974e+06   5.13358e+06    5.1317e+06
            4   5.11985e+06   5.11962e+06   5.11952e+06    5.1178e+06   5.13206e+06
          4.1   5.11937e+06   5.11938e+06   5.11882e+06   5.11772e+06   5.11871e+06
          4.2   5.11908e+06   5.11899e+06   5.11812e+06   5.11658e+06   5.10161e+06
          4.3   5.11873e+06   5.11818e+06   5.11717e+06   5.10925e+06   5.10299e+06
          4.4   5.11775e+06   5.11736e+06   5.11478e+06   5.10255e+06   5.10297e+06
          4.5   5.11674e+06   5.11614e+06   5.10212e+06   5.10239e+06   5.10117e+06
          4.6   5.11539e+06    5.1072e+06   5.10206e+06   5.10231e+06   5.10263e+06
          4.7   5.11279e+06   5.10062e+06   5.10173e+06     5.102e+06   5.10265e+06
          4.8   5.09568e+06   5.10001e+06   5.10121e+06    5.1018e+06   5.10233e+06
          4.9   5.08583e+06   5.09698e+06   5.10055e+06   5.10128e+06   5.10223e+06
            5   5.08594e+06   5.08575e+06   5.09922e+06   5.10062e+06   5.10147e+06
          5.1   5.08541e+06    5.0855e+06   5.08991e+06   5.09948e+06   5.09742e+06
          5.2   5.08509e+06   5.08517e+06   5.08479e+06   5.09742e+06   5.09945e+06
          5.3   5.08481e+06   5.08472e+06   5.08456e+06   5.08774e+06   5.09642e+06
          5.4   5.08443e+06   5.08426e+06   5.08377e+06   5.08267e+06   5.08325e+06
          5.5   5.08394e+06   5.08374e+06    5.0831e+06   5.08135e+06   5.06641e+06
          5.6   5.08339e+06   5.08299e+06   5.08182e+06   5.07138e+06   5.06871e+06
          5.7    5.0825e+06   5.08194e+06   5.07929e+06   5.06781e+06   5.06831e+06
          5.8   5.08153e+06   5.08056e+06   5.07004e+06   5.06768e+06   5.06831e+06
          5.9   5.07976e+06   5.07039e+06   5.06735e+06   5.06761e+06   5.06828e+06
            6   5.07629e+06   5.06603e+06   5.06712e+06    5.0674e+06   5.06623e+06
          6.1   5.05693e+06   5.06524e+06   5.06666e+06    5.0671e+06   5.06765e+06
          6.2   5.05171e+06   5.06048e+06   5.06576e+06   5.06656e+06   5.06727e+06
          6.3   5.05178e+06   5.05313e+06    5.0642e+06   5.06585e+06    5.0666e+06
          6.4   5.05146e+06    5.0515e+06   5.05265e+06    5.0645e+06   5.06562e+06
          6.5   5.05121e+06    5.0511e+06   5.05077e+06   5.06132e+06   5.06395e+06
          6.6   5.05066e+06   5.05062e+06   5.05031e+06   5.05024e+06   5.06106e+06
          6.7    5.0502e+06   5.05002e+06   5.04953e+06   5.04848e+06   5.04499e+06
          6.8   5.04958e+06   5.04939e+06   5.04862e+06   5.04629e+06   5.03296e+06
          6.9   5.04883e+06   5.04849e+06   5.04708e+06   5.03491e+06   5.03212e+06
            7   5.04789e+06   5.04728e+06   5.04227e+06   5.03425e+06   5.03369e+06
          7.1   5.04673e+06   5.04548e+06   5.03398e+06   5.03411e+06   5.03464e+06
          7.2   5.04455e+06   5.03585e+06   5.03371e+06   5.03399e+06   5.03448e+06
          7.3   5.03798e+06   5.03239e+06   5.03336e+06   5.03367e+06    5.0315e+06
          7.4    5.0187e+06   5.03097e+06   5.03269e+06   5.03326e+06   5.03375e+06
          7.5   5.01891e+06    5.0235e+06   5.03157e+06   5.03269e+06   5.03338e+06
          7.6   5.01881e+06   5.01873e+06   5.02904e+06   5.03173e+06   5.03268e+06
          7.7   5.01839e+06   5.01839e+06   5.01813e+06   5.02987e+06   5.03026e+06
          7.8   5.01783e+06   5.01782e+06   5.01757e+06   5.02137e+06   5.02903e+06
          7.9   5.01728e+06   5.01715e+06   5.01688e+06   5.01583e+06   5.02401e+06
            8   5.01663e+06    5.0165e+06   5.01591e+06   5.01451e+06   5.00149e+06
          8.1   5.01589e+06   5.01572e+06   5.01467e+06   5.00855e+06    5.0024e+06
          8.2   5.01505e+06   5.01464e+06   5.01266e+06   5.00139e+06   4.99998e+06
          8.3   5.01388e+06   5.01313e+06   5.00301e+06   5.00122e+06   5.00177e+06
          8.4   5.01241e+06   5.00949e+06   5.00085e+06   5.00113e+06   5.00157e+06
          8.5   5.00925e+06   4.99965e+06   5.00068e+06   5.00092e+06   5.00149e+06
          8.6   4.99193e+06   4.99889e+06   5.00015e+06   5.00059e+06   5.00123e+06
          8.7   4.98656e+06   4.99657e+06   4.99931e+06    5.0001e+06   5.00076e+06
          8.8   4.98662e+06    4.9867e+06   4.99775e+06   4.99932e+06   5.00014e+06
          8.9   4.98629e+06   4.98623e+06   4.98985e+06   4.99804e+06   4.99926e+06
            9   4.98579e+06   4.98565e+06   4.98549e+06   4.99521e+06   4.99731e+06
          9.1   4.98513e+06   4.98499e+06   4.98472e+06   4.98417e+06   4.99444e+06
          9.2   4.98444e+06   4.98438e+06   4.98386e+06   4.98278e+06    4.9802e+06
          9.3   4.98377e+06   4.98351e+06    4.9828e+06   4.98038e+06   4.97066e+06
          9.4    4.9828e+06   4.98249e+06   4.98118e+06   4.96957e+06   4.97003e+06
          9.5   4.98178e+06   4.98122e+06   4.97685e+06   4.96929e+06   4.96996e+06
          9.6   4.98065e+06   4.97925e+06   4.96904e+06    4.9692e+06   4.96954e+06
          9.7   4.97825e+06   4.96791e+06   4.96876e+06   4.96902e+06   4.96784e+06
          9.8   4.97116e+06   4.96737e+06   4.96844e+06   4.96876e+06   4.96926e+06
          9.9   4.95527e+06   4.96591e+06   4.96777e+06   4.96826e+06   4.96909e+06
           10   4.95524e+06   4.95531e+06   4.96658e+06   4.96766e+06   4.96833e+06
         10.1   4.95499e+06   4.95494e+06   4.96336e+06   4.96655e+06   4.96758e+06
         10.2   4.95455e+06   4.95439e+06   4.95405e+06   4.96444e+06   4.96608e+06
         10.3   4.95391e+06   4.95368e+06   4.95345e+06   4.95339e+06   4.96221e+06
         10.4   4.95302e+06   4.95304e+06    4.9526e+06   4.95171e+06   4.95704e+06
         10.5   4.95235e+06   4.95221e+06   4.95164e+06   4.94977e+06    4.9393e+06
         10.6   4.95146e+06   4.95113e+06   4.95018e+06    4.9425e+06   4.93902e+06
         10.7   4.95044e+06   4.94993e+06   4.94716e+06   4.93819e+06   4.93863e+06
         10.8   4.94929e+06   4.94829e+06   4.93782e+06   4.93812e+06   4.93872e+06
         10.9   4.94737e+06   4.94179e+06    4.9376e+06   4.93793e+06   4.93849e+06
           11   4.94311e+06   4.93628e+06   4.93731e+06   4.93768e+06    4.9382e+06
         11.1   4.92394e+06   4.93518e+06   4.93683e+06    4.9373e+06   4.93694e+06
         11.2   4.92445e+06   4.93084e+06   4.93574e+06   4.93667e+06   4.93743e+06
         11.3   4.92447e+06   4.92431e+06   4.93358e+06   4.93575e+06   4.93653e+06
         11.4   4.92394e+06   4.92385e+06   4.92337e+06   4.93389e+06   4.93499e+06
         11.5   4.92334e+06   4.92303e+06   4.92288e+06   4.92843e+06    4.9312e+06
         11.6   4.92252e+06   4.92238e+06   4.92199e+06   4.92117e+06   4.92862e+06
         11.7   4.92167e+06   4.92152e+06   4.92099e+06   4.91949e+06   4.90749e+06
         11.8    4.9208e+06   4.92057e+06   4.91964e+06    4.9151e+06   4.90886e+06
         11.9   4.91972e+06   4.91931e+06   4.91737e+06   4.90777e+06   4.90812e+06
           12    4.9186e+06    4.9177e+06   4.90764e+06   4.90757e+06    4.9082e+06
         12.1   4.91695e+06   4.91389e+06    4.9072e+06   4.90751e+06   4.90807e+06
         12.2   4.91325e+06   4.90611e+06   4.90698e+06   4.90729e+06   4.90707e+06
         12.3     4.897e+06   4.90508e+06   4.90653e+06   4.90695e+06   4.90751e+06
         12.4   4.89454e+06   4.90162e+06   4.90562e+06   4.90638e+06   4.90703e+06
         12.5   4.89441e+06   4.89439e+06    4.9036e+06   4.90551e+06   4.90611e+06
         12.6   4.89404e+06   4.89401e+06   4.89485e+06   4.90394e+06   4.90505e+06
         12.7   4.89339e+06    4.8932e+06   4.89302e+06   4.89961e+06   4.90324e+06
         12.8    4.8926e+06   4.89244e+06   4.89206e+06   4.89132e+06   4.89894e+06
         12.9   4.89171e+06   4.89162e+06   4.89104e+06   4.88972e+06    4.8806e+06
           13   4.89081e+06   4.89056e+06   4.88974e+06   4.88584e+06   4.87912e+06
         13.1   4.88972e+06   4.88935e+06   4.88752e+06   4.87828e+06   4.87714e+06
         13.2   4.88858e+06   4.88777e+06   4.87895e+06     4.878e+06   4.87848e+06
         13.3   4.88699e+06   4.88399e+06   4.87766e+06   4.87791e+06   4.87837e+06
         13.4   4.88358e+06   4.87656e+06   4.87736e+06   4.87766e+06   4.87823e+06
         13.5   4.86842e+06   4.87557e+06   4.87689e+06   4.87732e+06   4.87712e+06
         13.6   4.86548e+06   4.87228e+06   4.87599e+06   4.87673e+06   4.87735e+06
         13.7   4.86527e+06   4.86523e+06   4.87401e+06   4.87588e+06   4.87444e+06
         13.8   4.86497e+06   4.86483e+06   4.86551e+06   4.87423e+06   4.87522e+06
         13.9    4.8642e+06   4.86403e+06   4.86376e+06   4.86968e+06    4.8735e+06
           14    4.8633e+06   4.86323e+06   4.86284e+06   4.86199e+06   4.86879e+06
         14.1   4.86236e+06   4.86229e+06    4.8618e+06   4.86037e+06   4.85287e+06
         14.2   4.86141e+06   4.86122e+06   4.86042e+06   4.85653e+06   4.85039e+06
         14.3    4.8603e+06   4.85993e+06   4.85811e+06    4.8495e+06   4.84846e+06
         14.4   4.85914e+06   4.85832e+06   4.84958e+06   4.84911e+06   4.84978e+06
         14.5   4.85752e+06   4.85447e+06   4.84874e+06   4.84903e+06   4.84946e+06
         14.6    4.8538e+06   4.84763e+06   4.84843e+06   4.84874e+06   4.84749e+06
         14.7   4.83994e+06    4.8465e+06   4.84791e+06    4.8483e+06   4.84878e+06
         14.8   4.83694e+06   4.84284e+06   4.84694e+06   4.84768e+06   4.84592e+06
         14.9   4.83684e+06   4.83676e+06   4.84474e+06   4.84673e+06   4.84756e+06
           15   4.83644e+06   4.83624e+06   4.83645e+06   4.84494e+06   4.84558e+06
         15.1   4.83552e+06   4.83545e+06    4.8351e+06      4.84e+06   4.84223e+06
         15.2   4.83454e+06   4.83447e+06   4.83415e+06   4.83333e+06   4.83944e+06
         15.3   4.83356e+06   4.83347e+06   4.83305e+06   4.83149e+06   4.82293e+06
         15.4   4.83253e+06    4.8323e+06   4.83143e+06    4.8268e+06   4.82028e+06
         15.5   4.83136e+06   4.83098e+06   4.82881e+06   4.82127e+06   4.82168e+06
         15.6   4.83013e+06    4.8292e+06    4.8207e+06   4.82087e+06   4.82149e+06
         15.7   4.82837e+06   4.82414e+06   4.82042e+06   4.82071e+06   4.82095e+06
         15.8   4.82395e+06   4.81925e+06   4.82005e+06   4.82033e+06   4.82078e+06
         15.9   4.80976e+06   4.81786e+06   4.81939e+06    4.8198e+06   4.81964e+06
           16   4.80909e+06   4.81283e+06   4.81819e+06   4.81907e+06   4.81971e+06
         16.1   4.80894e+06   4.80877e+06   4.81549e+06   4.81799e+06   4.81879e+06
         16.2   4.80828e+06    4.8081e+06   4.80793e+06   4.81579e+06   4.81682e+06
         16.3   4.80724e+06   4.80722e+06   4.80689e+06   4.80906e+06   4.81447e+06
         16.4   4.80623e+06   4.80616e+06   4.80586e+06   4.80496e+06   4.80827e+06
         16.5   4.80518e+06   4.80507e+06   4.80458e+06   4.80278e+06   4.79512e+06
         16.6   4.80407e+06   4.80384e+06   4.80284e+06   4.79617e+06   4.79451e+06
         16.7   4.80283e+06   4.80237e+06    4.7993e+06   4.79349e+06   4.79215e+06
         16.8   4.80153e+06   4.80028e+06   4.79298e+06   4.79313e+06   4.79361e+06
         16.9    4.7993e+06   4.79317e+06   4.79258e+06   4.79284e+06   4.79296e+06
           17   4.79263e+06    4.7912e+06   4.79208e+06   4.79234e+06    4.7928e+06
         17.1   4.78202e+06   4.78931e+06   4.79122e+06   4.79172e+06   4.79224e+06
         17.2    4.7817e+06   4.78237e+06   4.78975e+06   4.79085e+06   4.79047e+06
         17.3   4.78138e+06   4.78119e+06   4.78555e+06   4.78951e+06   4.79033e+06
         17.4   4.78044e+06   4.78033e+06   4.78011e+06   4.78655e+06   4.78847e+06
         17.5   4.77934e+06   4.77932e+06   4.77903e+06   4.77857e+06   4.78382e+06
         17.6   4.77827e+06   4.77818e+06   4.77787e+06   4.77684e+06    4.7759e+06
         17.7   4.77715e+06   4.77698e+06   4.77643e+06   4.77397e+06   4.76802e+06
         17.8   4.77594e+06   4.77565e+06   4.77428e+06   4.76692e+06   4.76531e+06
         17.9   4.77461e+06   4.77401e+06    4.7689e+06   4.76609e+06   4.76668e+06
           18   4.77312e+06   4.77102e+06   4.76558e+06   4.76575e+06   4.76517e+06
         18.1   4.77005e+06   4.76461e+06   4.76507e+06    4.7653e+06   4.76572e+06
         18.2   4.75928e+06   4.76329e+06    4.7644e+06    4.7647e+06   4.76516e+06
         18.3   4.75503e+06   4.76025e+06    4.7633e+06   4.76392e+06   4.76404e+06
         18.4   4.75462e+06   4.75464e+06    4.7612e+06   4.76287e+06    4.7618e+06
         18.5   4.75398e+06   4.75381e+06   4.75457e+06   4.76101e+06   4.76017e+06
         18.6   4.75284e+06    4.7528e+06   4.75255e+06   4.75644e+06   4.75799e+06
         18.7   4.75169e+06   4.75165e+06   4.75139e+06   4.75078e+06   4.75501e+06
         18.8   4.75054e+06   4.75044e+06   4.75008e+06   4.74871e+06    4.7419e+06
         18.9   4.74933e+06   4.74914e+06   4.74836e+06   4.74402e+06   4.74088e+06
           19   4.74802e+06   4.74767e+06   4.74541e+06   4.73975e+06   4.73905e+06
         19.1   4.74669e+06   4.74567e+06   4.73915e+06   4.73906e+06   4.73957e+06
         19.2   4.74462e+06   4.74036e+06   4.73843e+06   4.73863e+06     4.739e+06
         19.3   4.73921e+06   4.73711e+06   4.73779e+06   4.73801e+06   4.73835e+06
         19.4   4.72902e+06   4.73524e+06   4.73688e+06   4.73725e+06   4.73565e+06
         19.5   4.72823e+06   4.72976e+06   4.73537e+06   4.73632e+06    4.7369e+06
         19.6    4.7277e+06   4.72758e+06   4.73171e+06    4.7349e+06    4.7357e+06
         19.7   4.72665e+06   4.72656e+06   4.72648e+06    4.7321e+06   4.73384e+06
         19.8   4.72544e+06   4.72542e+06   4.72518e+06   4.72532e+06   4.72924e+06
         19.9   4.72424e+06   4.72418e+06    4.7239e+06     4.723e+06   4.72218e+06
           20   4.72302e+06   4.72286e+06   4.72236e+06      4.72e+06   4.71447e+06
         20.1   4.72169e+06   4.72145e+06   4.72014e+06   4.71401e+06    4.7123e+06
         20.2   4.72028e+06   4.71969e+06    4.7151e+06   4.71283e+06   4.71333e+06
         20.3   4.71867e+06   4.71654e+06   4.71219e+06   4.71227e+06   4.71268e+06
         20.4    4.7153e+06   4.71118e+06   4.71147e+06   4.71165e+06   4.71197e+06
         20.5   4.70577e+06   4.70954e+06   4.71062e+06   4.71088e+06   4.71043e+06
         20.6   4.70226e+06   4.70612e+06   4.70935e+06   4.70995e+06   4.70853e+06
         20.7    4.7016e+06   4.70168e+06   4.70689e+06   4.70876e+06   4.70777e+06
         20.8    4.7007e+06   4.70058e+06   4.70112e+06   4.70663e+06   4.70671e+06
         20.9   4.69945e+06   4.69942e+06   4.69922e+06   4.70166e+06   4.70516e+06
           21   4.69819e+06   4.69814e+06   4.69792e+06   4.69733e+06   4.69964e+06
         21.1   4.69691e+06   4.69681e+06   4.69644e+06   4.69492e+06   4.68956e+06
         21.2   4.69557e+06   4.69537e+06   4.69449e+06   4.68978e+06   4.68825e+06
         21.3   4.69416e+06   4.69373e+06   4.69095e+06   4.68699e+06   4.68738e+06
         21.4   4.69264e+06    4.6913e+06   4.68637e+06   4.68622e+06   4.68655e+06
         21.5   4.69008e+06   4.68606e+06    4.6854e+06   4.68555e+06   4.68536e+06
         21.6   4.68315e+06   4.68381e+06   4.68455e+06   4.68474e+06    4.6838e+06
         21.7   4.67674e+06   4.68128e+06   4.68338e+06   4.68381e+06   4.68277e+06
         21.8   4.67577e+06   4.67633e+06   4.68141e+06   4.68266e+06   4.68154e+06
         21.9   4.67491e+06   4.67483e+06   4.67673e+06   4.68084e+06   4.68028e+06
           22   4.67366e+06   4.67361e+06   4.67352e+06   4.67709e+06    4.6795e+06
         22.1   4.67234e+06    4.6723e+06   4.67209e+06   4.67186e+06   4.67422e+06
         22.2     4.671e+06   4.67092e+06   4.67063e+06   4.66951e+06   4.66573e+06
         22.3   4.66964e+06   4.66946e+06   4.66881e+06    4.6655e+06   4.66277e+06
         22.4   4.66819e+06   4.66786e+06   4.66585e+06   4.66151e+06    4.6617e+06
         22.5   4.66667e+06   4.66573e+06   4.66107e+06   4.66043e+06   4.66088e+06
         22.6   4.66444e+06   4.66135e+06   4.65958e+06    4.6597e+06   4.66007e+06
         22.7   4.65916e+06   4.65817e+06   4.65867e+06   4.65884e+06    4.6592e+06
         22.8   4.65178e+06   4.65593e+06   4.65752e+06   4.65785e+06   4.65829e+06
         22.9   4.65017e+06   4.65148e+06   4.65574e+06   4.65669e+06   4.65722e+06
           23   4.64927e+06   4.64923e+06   4.65192e+06   4.65503e+06    4.6558e+06
         23.1     4.648e+06   4.64796e+06   4.64805e+06   4.65186e+06   4.65363e+06
         23.2   4.64663e+06   4.64661e+06   4.64643e+06    4.6467e+06   4.65002e+06
         23.3   4.64525e+06   4.64519e+06   4.64493e+06     4.644e+06   4.64225e+06
         23.4   4.64384e+06    4.6437e+06   4.64315e+06   4.64049e+06   4.63754e+06
         23.5   4.64234e+06    4.6421e+06   4.64048e+06   4.63631e+06   4.63623e+06
         23.6   4.64081e+06   4.64001e+06   4.63604e+06   4.63487e+06   4.63527e+06
         23.7   4.63872e+06   4.63624e+06   4.63399e+06   4.63402e+06   4.63441e+06
         23.8   4.63418e+06   4.63267e+06   4.63295e+06   4.63311e+06   4.63348e+06
         23.9   4.62708e+06   4.63043e+06   4.63177e+06   4.63207e+06    4.6325e+06
           24   4.62479e+06   4.62649e+06   4.63004e+06   4.63086e+06   4.63139e+06
         24.1   4.62375e+06   4.62382e+06   4.62669e+06   4.62922e+06   4.62993e+06
         24.2   4.62247e+06   4.62244e+06   4.62269e+06   4.62631e+06   4.62685e+06
         24.3   4.62105e+06   4.62104e+06   4.62087e+06   4.62151e+06   4.62444e+06
         24.4   4.61962e+06   4.61956e+06   4.61933e+06   4.61854e+06   4.61694e+06
         24.5   4.61815e+06   4.61803e+06   4.61753e+06   4.61522e+06   4.61141e+06
         24.6   4.61662e+06   4.61637e+06   4.61495e+06   4.61118e+06   4.61077e+06
         24.7   4.61502e+06   4.61429e+06   4.61089e+06   4.60949e+06   4.60961e+06
         24.8   4.61289e+06   4.61083e+06   4.60855e+06    4.6085e+06   4.60854e+06
         24.9   4.60865e+06   4.60724e+06   4.60738e+06   4.60751e+06   4.60748e+06
           25   4.60222e+06   4.60489e+06   4.60614e+06    4.6064e+06   4.60666e+06
         25.1   4.59954e+06   4.60125e+06   4.60437e+06   4.60513e+06   4.60555e+06
         25.2   4.59836e+06    4.5985e+06   4.60113e+06   4.60344e+06    4.6041e+06
         25.3   4.59703e+06   4.59699e+06   4.59738e+06   4.60053e+06   4.60187e+06
         25.4   4.59555e+06   4.59552e+06   4.59542e+06   4.59615e+06   4.59865e+06
         25.5   4.59407e+06   4.59401e+06   4.59379e+06   4.59307e+06   4.59158e+06
         25.6   4.59255e+06   4.59242e+06   4.59192e+06   4.58974e+06   4.58741e+06
         25.7   4.59096e+06   4.59072e+06   4.58929e+06   4.58602e+06   4.58567e+06
         25.8    4.5893e+06   4.58855e+06   4.58557e+06   4.58419e+06   4.58448e+06
         25.9   4.58707e+06   4.58517e+06   4.58321e+06   4.58311e+06   4.58342e+06
           26   4.58274e+06   4.58183e+06   4.58192e+06   4.58202e+06   4.58239e+06
         26.1   4.57707e+06   4.57932e+06   4.58057e+06   4.58085e+06   4.58125e+06
         26.2   4.57439e+06   4.57586e+06   4.57865e+06   4.57948e+06   4.57996e+06
         26.3   4.57305e+06   4.57323e+06   4.57545e+06   4.57767e+06   4.57837e+06
         26.4   4.57163e+06   4.57161e+06   4.57205e+06   4.57465e+06   4.57598e+06
         26.5   4.57011e+06   4.57008e+06   4.56999e+06   4.57064e+06   4.57142e+06
         26.6   4.56857e+06   4.56851e+06   4.56827e+06   4.56752e+06   4.56667e+06
         26.7     4.567e+06   4.56686e+06   4.56631e+06   4.56418e+06   4.56237e+06
         26.8   4.56536e+06   4.56508e+06   4.56355e+06   4.56082e+06   4.55903e+06
         26.9    4.5636e+06   4.56275e+06   4.56013e+06   4.55898e+06    4.5588e+06
           27    4.5611e+06   4.55942e+06    4.5579e+06   4.55779e+06   4.55809e+06
         27.1   4.55671e+06   4.55634e+06    4.5565e+06   4.55662e+06   4.55688e+06
         27.2   4.55182e+06   4.55362e+06     4.555e+06   4.55534e+06   4.55559e+06
         27.3   4.54926e+06    4.5504e+06   4.55288e+06   4.55387e+06   4.55419e+06
         27.4   4.54777e+06   4.54797e+06    4.5497e+06   4.55183e+06   4.55253e+06
         27.5   4.54627e+06   4.54627e+06   4.54665e+06   4.54866e+06   4.55019e+06
         27.6    4.5447e+06   4.54467e+06   4.54458e+06     4.545e+06    4.5462e+06
         27.7    4.5431e+06   4.54305e+06   4.54276e+06   4.54184e+06    4.5411e+06
         27.8   4.54146e+06   4.54133e+06   4.54062e+06   4.53852e+06   4.53722e+06
         27.9   4.53977e+06   4.53939e+06   4.53776e+06    4.5356e+06   4.53531e+06
           28   4.53781e+06   4.53688e+06   4.53473e+06   4.53383e+06   4.53392e+06
         28.1   4.53495e+06   4.53369e+06   4.53265e+06   4.53253e+06   4.53279e+06
         28.2   4.53056e+06   4.53077e+06   4.53112e+06   4.53126e+06   4.53013e+06
         28.3   4.52652e+06   4.52791e+06   4.52941e+06   4.52986e+06    4.5301e+06
         28.4   4.52415e+06   4.52499e+06     4.527e+06   4.52819e+06   4.52722e+06
         28.5   4.52252e+06   4.52271e+06   4.52395e+06   4.52582e+06   4.52667e+06
         28.6   4.52093e+06   4.52094e+06   4.52128e+06   4.52261e+06    4.5239e+06
         28.7   4.51931e+06   4.51928e+06   4.51917e+06   4.51926e+06   4.51972e+06
         28.8   4.51765e+06   4.51756e+06   4.51716e+06   4.51605e+06   4.51526e+06
         28.9   4.51595e+06   4.51574e+06   4.51477e+06   4.51298e+06   4.51223e+06
           29   4.51409e+06   4.51356e+06   4.51199e+06   4.51056e+06   4.51035e+06
         29.1   4.51168e+06   4.51085e+06    4.5095e+06   4.50886e+06   4.50888e+06
         29.2   4.50826e+06   4.50792e+06   4.50759e+06   4.50749e+06   4.50737e+06
         29.3   4.50447e+06   4.50504e+06   4.50583e+06   4.50612e+06    4.5064e+06
         29.4   4.50186e+06   4.50229e+06   4.50338e+06   4.50429e+06   4.50339e+06
         29.5   4.49979e+06   4.50001e+06   4.50072e+06    4.5017e+06   4.50237e+06
         29.6   4.49775e+06    4.4979e+06   4.49833e+06   4.49878e+06   4.49912e+06
         29.7   4.49581e+06   4.49591e+06     4.496e+06    4.4958e+06   4.49588e+06
         29.8   4.49394e+06   4.49386e+06   4.49349e+06    4.4931e+06   4.49315e+06
         29.9   4.49185e+06   4.49159e+06   4.49111e+06   4.49071e+06   4.49071e+06
           30   4.48938e+06   4.48925e+06   4.48889e+06   4.48853e+06   4.48852e+06
         30.1   4.48683e+06   4.48679e+06   4.48666e+06   4.48643e+06   4.48655e+06
         30.2   4.48431e+06   4.48432e+06   4.48436e+06   4.48434e+06    4.4845e+06
         30.3   4.48185e+06   4.48191e+06   4.48204e+06   4.48219e+06   4.48131e+06
         30.4   4.47946e+06   4.47954e+06   4.47973e+06   4.47993e+06   4.48034e+06
         30.5   4.47718e+06   4.47725e+06   4.47741e+06   4.47753e+06   4.47772e+06
         30.6   4.47495e+06     4.475e+06   4.47505e+06   4.47509e+06   4.47521e+06
         30.7   4.47277e+06   4.47274e+06   4.47268e+06   4.47262e+06   4.47269e+06
         30.8   4.47053e+06   4.47048e+06   4.47033e+06   4.47019e+06    4.4704e+06
         30.9   4.46825e+06   4.46817e+06   4.46801e+06   4.46784e+06   4.46795e+06
           31   4.46587e+06   4.46582e+06   4.46569e+06   4.46553e+06   4.46545e+06
         31.1   4.46349e+06   4.46346e+06   4.46339e+06   4.46328e+06   4.46352e+06
         31.2   4.46107e+06   4.46108e+06   4.46105e+06   4.46103e+06   4.46121e+06
         31.3   4.45867e+06    4.4587e+06   4.45874e+06   4.45876e+06   4.45893e+06
         31.4    4.4563e+06   4.45634e+06    4.4564e+06   4.45646e+06   4.45677e+06
         31.5   4.45398e+06     4.454e+06   4.45407e+06   4.45412e+06   4.45435e+06
         31.6    4.4517e+06   4.45171e+06   4.45173e+06   4.45175e+06   4.45096e+06
         31.7    4.4494e+06   4.44939e+06   4.44937e+06   4.44935e+06   4.44955e+06
         31.8   4.44713e+06    4.4471e+06   4.44705e+06   4.44696e+06   4.44591e+06
         31.9    4.4448e+06   4.44478e+06   4.44469e+06   4.44461e+06   4.44472e+06
           32   4.44248e+06   4.44244e+06   4.44236e+06   4.44228e+06   4.44204e+06
         32.1   4.44012e+06   4.44009e+06   4.44003e+06   4.43995e+06   4.44011e+06
         32.2   4.43775e+06   4.43774e+06   4.43771e+06   4.43766e+06   4.43702e+06
         32.3   4.43536e+06   4.43538e+06   4.43538e+06   4.43536e+06   4.43549e+06
         32.4   4.43301e+06   4.43301e+06   4.43304e+06   4.43305e+06   4.43206e+06
         32.5   4.43067e+06   4.43067e+06    4.4307e+06   4.43072e+06   4.43085e+06
         32.6   4.42833e+06   4.42834e+06   4.42835e+06   4.42834e+06   4.42772e+06
         32.7   4.42602e+06   4.42602e+06   4.42601e+06   4.42598e+06    4.4262e+06
         32.8   4.42371e+06   4.42371e+06   4.42368e+06   4.42361e+06   4.42383e+06
         32.9   4.42139e+06   4.42137e+06   4.42134e+06   4.42126e+06   4.42011e+06
           33   4.41907e+06   4.41905e+06   4.41899e+06   4.41892e+06     4.419e+06
         33.1   4.41671e+06   4.41668e+06   4.41664e+06   4.41658e+06   4.41655e+06
         33.2   4.41435e+06   4.41435e+06   4.41431e+06   4.41426e+06   4.41443e+06
         33.3     4.412e+06   4.41199e+06   4.41196e+06   4.41194e+06   4.41204e+06
         33.4   4.40963e+06   4.40963e+06   4.40964e+06   4.40961e+06   4.40887e+06
         33.5   4.40728e+06   4.40727e+06   4.40728e+06   4.40728e+06   4.40748e+06
         33.6   4.40493e+06   4.40494e+06   4.40494e+06   4.40493e+06   4.40504e+06
         33.7    4.4026e+06    4.4026e+06    4.4026e+06   4.40257e+06   4.40168e+06
         33.8   4.40028e+06   4.40027e+06   4.40024e+06    4.4002e+06    4.4004e+06
         33.9   4.39795e+06   4.39794e+06    4.3979e+06   4.39786e+06   4.39798e+06
           34   4.39561e+06   4.39559e+06   4.39555e+06   4.39548e+06   4.39569e+06
         34.1   4.39326e+06   4.39325e+06   4.39322e+06   4.39316e+06   4.39314e+06
         34.2    4.3909e+06    4.3909e+06   4.39087e+06   4.39081e+06   4.39102e+06
         34.3   4.38855e+06   4.38853e+06   4.38853e+06   4.38848e+06   4.38869e+06
         34.4   4.38618e+06   4.38618e+06   4.38617e+06   4.38614e+06    4.3851e+06
         34.5   4.38383e+06   4.38384e+06   4.38384e+06    4.3838e+06   4.38401e+06
         34.6   4.38148e+06   4.38149e+06   4.38147e+06   4.38146e+06   4.38157e+06
         34.7   4.37913e+06   4.37913e+06   4.37912e+06   4.37909e+06   4.37833e+06
         34.8    4.3768e+06   4.37679e+06   4.37677e+06   4.37673e+06   4.37689e+06
         34.9   4.37446e+06   4.37445e+06   4.37442e+06   4.37437e+06   4.37457e+06
           35   4.37212e+06   4.37211e+06   4.37207e+06   4.37202e+06   4.37213e+06
         35.1   4.36976e+06   4.36975e+06   4.36972e+06   4.36966e+06   4.36966e+06
         35.2   4.36741e+06    4.3674e+06   4.36737e+06   4.36732e+06   4.36649e+06
         35.3   4.36506e+06   4.36504e+06   4.36503e+06   4.36498e+06    4.3652e+06