# Probe 0 (1 0 0)
# Probe 1 (10 0 0)
# Probe 2 (20 0 0)
# Probe 3 (30 0 0)
# Probe 4 (40 0 0)
#       Probe             0             1             2             3             4
#        Time
            0        289.43        289.43        289.43        289.43       289.208
          0.1       289.435       289.435       289.432        289.43       289.176
          0.2        289.43        289.43        289.43       289.178        289.13
          0.3       289.429        289.43        289.43       289.166       289.124
          0.4       289.429       289.429       289.188       289.186       289.125
          0.5       289.428       289.428       289.165        289.18       289.119
          0.6       289.428       289.165       289.172       289.184       289.115
          0.7       289.407        289.18       289.187       289.192       289.122
          0.8       288.915       289.148       289.189       289.183       289.134
          0.9       288.931       289.071       289.143       289.171       289.126
            1       288.958       288.935       289.135       289.139       289.079
          1.1       288.956       288.938       288.921       289.128       289.071
          1.2       288.939       288.933       288.909        289.11       289.068
          1.3       288.941       288.924       288.906       288.933       289.053
          1.4       288.935       288.918       288.902       288.905        289.04
          1.5       288.928       288.914       288.897       288.886       288.754
          1.6       288.925       288.908       288.889        288.85       288.792
          1.7       288.918       288.898       288.879       288.772       288.815
          1.8       288.909       288.884       288.766       288.779       288.771
          1.9         288.9        288.87        288.78       288.794       288.816
            2       288.874       288.773       288.784       288.788       288.807
          2.1       288.837       288.756       288.782       288.787       288.815
          2.2       288.624       288.752       288.779       288.789       288.818
          2.3       288.648       288.681       288.773       288.786       288.815
          2.4       288.665       288.644       288.756        288.78       288.813
          2.5       288.648       288.634       288.615       288.767       288.801
          2.6       288.646       288.625       288.607       288.717       288.785
          2.7       288.639       288.621       288.605         288.6       288.754
          2.8       288.637       288.618         288.6       288.592       288.619
          2.9       288.632       288.615       288.594       288.577       288.501
            3       288.631       288.606       288.586       288.482       288.499
          3.1       288.625       288.596       288.557       288.475       288.462
          3.2       288.615       288.591       288.476        288.49       288.466
          3.3       288.606       288.494       288.487       288.495       288.469
          3.4       288.557       288.462       288.497       288.507       288.515
          3.5       288.372       288.465         288.5       288.517       288.535
          3.6       288.371       288.413       288.505       288.524       288.534
          3.7       288.372       288.346         288.5       288.525       288.516
          3.8       288.379       288.354        288.41       288.519       288.541
          3.9       288.379       288.345       288.322       288.502       288.478
            4       288.376       288.341        288.32       288.303       288.484
          4.1       288.371        288.34       288.312       288.305       288.318
          4.2       288.369       288.336       288.307       288.294       288.192
          4.3       288.367       288.328       288.299       288.234       288.216
          4.4       288.357        288.32        288.28       288.188        288.22
          4.5       288.353       288.314       288.179       288.199       288.204
          4.6        288.35       288.221       288.198       288.218       288.245
          4.7       288.327       288.173       288.212       288.233       288.263
          4.8       288.127       288.184       288.223       288.249       288.276
          4.9       288.071       288.157       288.232       288.259       288.291
            5       288.093       288.044       288.229       288.266       288.296
          5.1       288.101        288.06       288.102       288.263       288.248
          5.2       288.102       288.061       288.037       288.236       288.282
          5.3       288.101       288.057       288.037       288.091       288.238
          5.4       288.098       288.053       288.029        288.02        288.04
          5.5       288.095       288.049       288.024        288.01       287.895
          5.6       288.091       288.043       288.013       287.929       287.935
          5.7       288.085       288.034       287.994       287.903       287.935
          5.8       288.087       288.031       287.929       287.921       287.953
          5.9       288.082       287.922       287.915       287.945       287.976
            6       288.051       287.889       287.937       287.966       287.968
          6.1       287.821       287.902       287.954       287.985       288.012
          6.2       287.781       287.854       287.964           288       288.028
          6.3       287.807       287.794       287.962       288.011       288.039
          6.4       287.821       287.788       287.802       288.006       288.038
          6.5       287.823       287.788        287.78       287.962       288.017
          6.6       287.819       287.785       287.777       287.796       287.976
          6.7       287.818       287.781       287.771       287.774       287.735
          6.8       287.814       287.778       287.763       287.747       287.616
          6.9        287.81       287.772       287.748       287.632       287.614
            7       287.808       287.766       287.692       287.635        287.65
          7.1       287.815       287.764       287.638       287.661        287.69
          7.2       287.809       287.646       287.665        287.69       287.717
          7.3       287.735       287.638        287.69       287.715       287.701
          7.4       287.504       287.647       287.709       287.738       287.762
          7.5       287.539       287.562        287.72       287.757       287.783
          7.6       287.567       287.521       287.707       287.767       287.797
          7.7       287.577       287.532       287.552       287.752       287.772
          7.8       287.574       287.529        287.55       287.625       287.758
          7.9       287.573       287.526       287.546       287.546       287.686
            8        287.57       287.524       287.539       287.533       287.357
          8.1       287.568       287.521       287.529       287.451       287.396
          8.2       287.566       287.516        287.51       287.363       287.372
          8.3       287.569       287.515       287.383       287.384       287.421
          8.4        287.58       287.493       287.388       287.419       287.453
          8.5       287.564       287.377       287.422       287.453       287.487
          8.6       287.329       287.403       287.449       287.483       287.517
          8.7       287.284       287.402        287.47       287.509       287.542
          8.8       287.321       287.284       287.478       287.528       287.563
          8.9       287.345       287.307       287.382       287.534       287.574
            9       287.347       287.307       287.322       287.498       287.552
          9.1       287.345       287.305       287.319       287.332       287.514
          9.2       287.343       287.305       287.315        287.32       287.299
          9.3       287.344       287.303       287.309       287.293        287.16
          9.4       287.341         287.3       287.297       287.138       287.164
          9.5       287.343       287.298       287.248       287.153       287.183
          9.6       287.362       287.305       287.166       287.192       287.216
          9.7       287.363       287.168       287.204       287.232       287.232
          9.8        287.29       287.202        287.24       287.269       287.294
          9.9       287.081        287.22        287.27         287.3        287.33
           10       287.123       287.092       287.289       287.328       287.355
         10.1       287.157       287.125       287.272       287.344       287.376
         10.2       287.167       287.133        287.14       287.325       287.367
         10.3       287.167       287.132       287.141       287.159       287.314
         10.4       287.164       287.134       287.139       287.143       287.243
         10.5       287.166       287.133       287.136       287.125       286.971
         10.6       287.166       287.131       287.128       287.024       286.983
         10.7       287.169       287.131       287.099       286.976       286.997
         10.8       287.185        287.14       286.987       287.013       287.036
         10.9       287.198       287.081       287.032       287.058       287.079
           11       287.173        287.04       287.074         287.1       287.121
         11.1       286.911       287.068       287.111       287.138       287.144
         11.2       286.966       287.042       287.136        287.17       287.194
         11.3       287.009        286.98       287.141       287.194       287.218
         11.4       287.028           287       287.001       287.189       287.217
         11.5        287.03       286.999       287.005       287.111       287.167
         11.6        287.03       287.002       287.004       287.006       287.136
         11.7        287.03       287.002       287.002       286.993       286.809
         11.8       287.033       287.003       286.997       286.938       286.848
         11.9       287.035       287.003        286.98       286.842       286.858
           12        287.05       287.011       286.858       286.875       286.895
         12.1       287.071       286.998       286.903       286.926       286.945
         12.2       287.058       286.921        286.95       286.972       286.979
         12.3       286.841       286.954       286.992       287.015       287.034
         12.4        286.85       286.945       287.023       287.052       287.072
         12.5       286.895       286.873       287.034        287.08       287.099
         12.6       286.924       286.901       286.922       287.086       287.113
         12.7       286.928       286.902       286.905       287.027       287.095
         12.8       286.929       286.905       286.905       286.904       287.039
         12.9       286.931       286.907       286.904       286.894       286.751
           13       286.934       286.908       286.901       286.848       286.746
         13.1       286.938       286.911       286.887       286.748       286.738
         13.2       286.953       286.919        286.78        286.78       286.796
         13.3       286.978       286.908       286.815       286.834       286.849
         13.4       286.972       286.838       286.864       286.883         286.9
         13.5        286.77       286.874       286.908       286.929       286.933
         13.6       286.774        286.87       286.943       286.969       286.986
         13.7       286.821       286.801       286.956           287       286.985
         13.8       286.853       286.831       286.848       287.006        287.03
         13.9       286.856       286.834       286.834       286.945       287.015
           14       286.858       286.838       286.836       286.831       286.952
         14.1       286.861       286.841       286.837       286.823       286.703
         14.2       286.865       286.844       286.835       286.779       286.681
         14.3       286.871       286.847       286.821       286.687       286.677
         14.4       286.889       286.857       286.716       286.721       286.738
         14.5       286.915       286.847        286.76       286.777        286.79
         14.6       286.905       286.787       286.811       286.829       286.815
         14.7       286.723       286.822       286.856       286.875       286.889
         14.8       286.728       286.813       286.891       286.916       286.894
         14.9       286.777        286.76       286.902       286.947       286.966
           15       286.807       286.787       286.794       286.949       286.966
         15.1       286.809       286.792       286.789       286.881       286.927
         15.2       286.812       286.795       286.792       286.786       286.895
         15.3       286.816       286.799       286.794       286.775       286.634
         15.4       286.822       286.802        286.79       286.719       286.614
         15.5       286.829       286.807       286.773       286.653       286.665
         15.6       286.851        286.82       286.679       286.693       286.708
         15.7       286.877       286.789       286.734        286.75       286.759
         15.8       286.854       286.763       286.785       286.801       286.813
         15.9       286.664       286.795       286.829       286.847       286.849
           16        286.71       286.762       286.861       286.887       286.902
         16.1       286.759       286.742       286.862       286.915       286.933
         16.2       286.779       286.763       286.761       286.907       286.929
         16.3       286.782       286.768       286.763       286.808       286.907
         16.4       286.786       286.772       286.767       286.758       286.822
         16.5       286.791       286.777       286.769       286.744       286.614
         16.6       286.798       286.781       286.765       286.655        286.63
         16.7       286.808       286.788       286.735       286.642       286.626
         16.8       286.836       286.802       286.677        286.69       286.702
         16.9       286.853       286.735       286.731       286.746       286.751
           17       286.792       286.759       286.781       286.795       286.806
         17.1       286.662       286.783       286.822        286.84       286.852
         17.2       286.713       286.714       286.849       286.877       286.875
         17.3       286.757       286.743       286.821       286.899       286.917
         17.4       286.768       286.755       286.751       286.872       286.909
         17.5       286.771        286.76       286.755       286.752        286.85
         17.6       286.777       286.765       286.759       286.745       286.733
         17.7       286.783        286.77       286.759       286.721       286.616
         17.8       286.791       286.775        286.75       286.626       286.603
         17.9       286.805       286.785       286.694       286.652       286.665
           18       286.835       286.789       286.695       286.707         286.7
         18.1       286.838       286.733       286.747       286.759       286.769
         18.2       286.701       286.769       286.793       286.807       286.817
         18.3       286.684       286.771        286.83       286.849       286.853
         18.4       286.733       286.724       286.844       286.882       286.867
         18.5       286.764       286.752       286.764       286.887       286.878
         18.6       286.768       286.759       286.753       286.828       286.861
         18.7       286.773       286.764       286.758       286.751        286.83
         18.8       286.779       286.769       286.761        286.74        286.62
         18.9       286.786       286.775       286.759       286.685       286.629
           19       286.796       286.782        286.74       286.643       286.634
         19.1       286.821       286.795       286.677       286.684       286.694
         19.2       286.842       286.758       286.727       286.738       286.746
         19.3       286.801       286.759       286.775       286.787       286.794
         19.4       286.674       286.784       286.817       286.831       286.807
         19.5       286.718       286.739       286.845       286.868        286.88
         19.6        286.76       286.751       286.826       286.891       286.906
         19.7       286.773       286.765       286.762        286.87       286.903
         19.8       286.778       286.771       286.765       286.771       286.847
         19.9       286.784       286.777        286.77       286.756       286.744
           20       286.791       286.782       286.771       286.731        286.63
         20.1         286.8       286.789       286.763       286.654       286.627
         20.2       286.816       286.799       286.713       286.677       286.687
         20.3       286.843       286.798        286.72       286.728       286.736
         20.4       286.839       286.759       286.768       286.778       286.784
         20.5        286.72       286.789       286.812       286.823       286.816
         20.6       286.716       286.783       286.846       286.863       286.841
         20.7       286.759       286.755       286.853       286.893       286.879
         20.8       286.784       286.777       286.785       286.892       286.897
         20.9        286.79       286.784       286.779       286.827       286.892
           21       286.796        286.79       286.784       286.775       286.818
         21.1       286.803       286.796       286.787        286.76       286.661
         21.2        286.81       286.802       286.784       286.698       286.668
         21.3       286.823        286.81       286.757       286.687       286.693
         21.4       286.848       286.819       286.727       286.729       286.735
         21.5       286.859        286.78       286.771       286.779       286.776
         21.6       286.787       286.798       286.815       286.824       286.808
         21.7       286.726       286.809       286.851       286.864       286.847
         21.8       286.765       286.772       286.869       286.897       286.879
         21.9       286.797       286.791       286.826       286.908         286.9
           22       286.806       286.801       286.798       286.868       286.913
         22.1       286.812       286.807       286.802       286.798       286.846
         22.2       286.818       286.813       286.806       286.785       286.716
         22.3       286.826       286.819       286.805       286.743        286.69
         22.4       286.836       286.826       286.787       286.707        286.71
         22.5       286.858       286.836       286.748        286.74       286.748
         22.6       286.874       286.812       286.781       286.788       286.794
         22.7       286.832       286.812       286.825       286.832       286.838
         22.8        286.75       286.828       286.862       286.872        286.88
         22.9       286.778         286.8       286.883       286.905       286.915
           23       286.812       286.808       286.859       286.922       286.936
         23.1       286.825        286.82        286.82       286.895        286.93
         23.2       286.831       286.827       286.822       286.827       286.892
         23.3       286.837       286.832       286.826       286.808       286.776
         23.4       286.845       286.838       286.826       286.776       286.717
         23.5       286.854       286.846       286.813       286.734       286.732
         23.6       286.873       286.854       286.777       286.758       286.765
         23.7        286.89        286.84       286.798       286.803       286.809
         23.8       286.861       286.831       286.839       286.846       286.852
         23.9       286.783       286.847       286.876       286.885       286.892
           24       286.798       286.828       286.899       286.918       286.927
         24.1        286.83       286.828       286.883       286.936       286.949
         24.2       286.845       286.841       286.844       286.916       286.929
         24.3       286.852       286.848       286.843       286.856       286.913
         24.4       286.858       286.853       286.847       286.832       286.802
         24.5       286.865       286.859       286.848       286.803        286.73
         24.6       286.874       286.866       286.837       286.765       286.756
         24.7       286.891       286.874       286.807       286.782       286.784
         24.8       286.907       286.863        286.82       286.823       286.824
         24.9       286.882       286.853       286.859       286.865       286.864
           25       286.815       286.867       286.894       286.903       286.907
         25.1       286.821       286.853       286.915       286.934       286.941
         25.2       286.851       286.851       286.902       286.951       286.962
         25.3       286.866       286.862       286.869       286.933       286.959
         25.4       286.873       286.869       286.865       286.881       286.929
         25.5       286.879       286.875       286.869       286.856       286.826
         25.6       286.886        286.88       286.869       286.827       286.779
         25.7       286.895       286.887       286.858       286.795       286.786
         25.8       286.911       286.894       286.834       286.811       286.814
         25.9       286.924       286.884       286.847       286.849       286.853
           26       286.897       286.877       286.882       286.888       286.893
         26.1       286.843       286.886       286.914       286.924        286.93
         26.2       286.848       286.875       286.932       286.953        286.96
         26.3       286.874       286.874       286.919       286.966       286.978
         26.4       286.888       286.884       286.892       286.946       286.971
         26.5       286.894       286.891       286.888       286.902       286.919
         26.6       286.901       286.896       286.891       286.877       286.858
         26.7       286.908       286.902        286.89       286.848        286.81
         26.8       286.917       286.909       286.878       286.825       286.791
         26.9       286.933       286.913       286.861       286.841       286.837
           27       286.939       286.903       286.875       286.876        286.88
         27.1       286.909       286.901       286.907       286.913       286.916
         27.2        286.87       286.905       286.936       286.946       286.949
         27.3       286.876       286.896       286.948       286.972       286.976
         27.4       286.897       286.898       286.933       286.979       286.991
         27.5       286.909       286.906       286.913       286.956       286.985
         27.6       286.916       286.912        286.91       286.919       286.942
         27.7       286.922       286.918       286.912       286.894       286.875
         27.8       286.929       286.923       286.909       286.867       286.838
         27.9        286.94       286.929       286.896       286.854       286.846
           28       286.952       286.931       286.888       286.873       286.873
         28.1       286.951       286.924       286.905       286.906       286.908
         28.2        286.92       286.923       286.933       286.939       286.918
         28.3       286.896       286.923       286.956       286.968       286.971
         28.4       286.903       286.918       286.961       286.988       286.969
         28.5       286.919        286.92       286.946       286.986           287
         28.6       286.929       286.927       286.934       286.962       286.985
         28.7       286.936       286.933       286.931       286.932       286.939
         28.8       286.942       286.938        286.93       286.907       286.889
         28.9       286.951       286.944       286.925       286.888        286.87
           29       286.962       286.949       286.917       286.889       286.883
         29.1       286.967       286.948       286.923       286.911       286.909
         29.2       286.956       286.947       286.943       286.943       286.939
         29.3       286.937       286.948       286.967       286.975       286.978
         29.4       286.937       286.945       286.969        286.99       286.974
         29.5       286.938       286.941       286.957       286.979       286.991
         29.6       286.937       286.939       286.949       286.959       286.964
         29.7        286.94        286.94       286.943        286.94        286.94
         29.8       286.948       286.944       286.937        286.93        286.93
         29.9       286.954       286.947       286.938       286.931        286.93
           30       286.955       286.951       286.945       286.939       286.938
         30.1       286.956       286.953       286.952       286.949       286.949
         30.2       286.956       286.955       286.957       286.958        286.96
         30.3       286.957       286.956        286.96       286.965        286.95
         30.4       286.957       286.957       286.962       286.968       286.974
         30.5       286.959       286.959       286.963       286.967        286.97
         30.6       286.962       286.961       286.963       286.965       286.966
         30.7       286.965       286.963       286.963       286.963       286.962
         30.8       286.968       286.965       286.963       286.962       286.963
         30.9       286.971       286.968       286.965       286.963       286.963
           31       286.972        286.97       286.968       286.966       286.964
         31.1       286.974       286.972       286.971        286.97       286.973
         31.2       286.975       286.973       286.974       286.975       286.976
         31.3       286.976       286.974       286.976       286.978        286.98
         31.4       286.977       286.976       286.978       286.981       286.984
         31.5       286.978       286.977       286.979       286.982       286.984
         31.6       286.981       286.979        286.98       286.982       286.966
         31.7       286.983       286.981       286.981       286.982       286.983
         31.8       286.985       286.983       286.982       286.982       286.961
         31.9       286.986       286.984       286.983       286.983       286.983
           32       286.988       286.986       286.985       286.985       286.978
         32.1        286.99       286.988       286.987       286.987       286.988
         32.2       286.991       286.989       286.989        286.99       286.976
         32.3       286.992       286.991       286.991       286.993       286.993
         32.4       286.993       286.992       286.993       286.995       286.975
         32.5       286.994       286.993       286.994       286.996       286.996
         32.6       286.996       286.994       286.995       286.997       286.983
         32.7       286.997       286.996       286.996       286.997       286.999
         32.8       286.999       286.998       286.997       286.998       286.999
         32.9       287.001       286.999       286.999       286.999       286.977
           33       287.003       287.001           287           287       286.999
         33.1       287.004       287.002       287.001       287.002       286.998
         33.2       287.005       287.003       287.003       287.004       287.004
         33.3       287.006       287.004       287.004       287.005       287.005
         33.4       287.007       287.005       287.006       287.007       286.991
         33.5       287.008       287.007       287.007       287.009        287.01
         33.6       287.009       287.008       287.008        287.01       287.009
         33.7       287.011       287.009        287.01        287.01       286.992
         33.8       287.012        287.01        287.01       287.011       287.012
         33.9       287.014       287.012       287.012       287.012       287.012
           34       287.015       287.013       287.013       287.013       287.013
         34.1       287.016       287.014       287.014       287.014       287.012
         34.2       287.017       287.015       287.015       287.016       287.017
         34.3       287.018       287.016       287.017       287.017       287.018
         34.4       287.019       287.017       287.018       287.019       286.998
         34.5        287.02       287.019       287.019        287.02       287.021
         34.6       287.021        287.02        287.02       287.021        287.02
         34.7       287.022       287.021       287.021       287.022       287.005
         34.8       287.023       287.022       287.022       287.022       287.023
         34.9       287.025       287.023       287.023       287.023       287.024
           35       287.026       287.024       287.024       287.024       287.023
         35.1       287.027       287.025       287.025       287.025       287.022
         35.2       287.028       287.026       287.026       287.026        287.01
         35.3       287.029       287.027       287.027       287.028       287.029