# Probe 0 (1 0 0)
# Probe 1 (10 0 0)
# Probe 2 (20 0 0)
# Probe 3 (30 0 0)
# Probe 4 (40 0 0)
#       Probe             0             1             2             3             4
#        Time
            0       289.208       289.208       289.208       289.208       289.208
          0.1       289.208       289.208       289.208       289.208        289.03
          0.2       289.208       289.208       289.208       289.051       289.032
          0.3       289.207       289.208       289.208       289.049       289.036
          0.4       289.207       289.207       289.037       289.051        289.04
          0.5       289.207       289.207       289.039        289.05       289.042
          0.6       289.207       289.049       289.044        289.05       289.044
          0.7       289.196       289.049       289.048       289.051       289.045
          0.8       288.895       289.044       289.049        289.05       289.045
          0.9       288.896       289.011       289.044       289.049       289.045
            1       288.899       288.903       289.042       289.044       289.026
          1.1       288.898       288.902       288.908       289.037       289.019
          1.2       288.896       288.902       288.906       289.026       289.017
          1.3       288.896       288.901       288.905       288.888       289.009
          1.4       288.896         288.9       288.902       288.884       288.991
          1.5       288.895       288.899       288.897       288.882       288.727
          1.6       288.894       288.897       288.889       288.851       288.732
          1.7       288.893       288.892       288.878       288.751       288.736
          1.8       288.888       288.882       288.753       288.753       288.731
          1.9       288.878       288.869       288.753       288.755       288.737
            2        288.86       288.742       288.752       288.754       288.736
          2.1       288.817        288.74       288.751       288.753       288.737
          2.2       288.606       288.734       288.746        288.75       288.735
          2.3       288.607       288.672       288.739       288.744        288.73
          2.4       288.608        288.61       288.726       288.737       288.723
          2.5       288.606       288.608        288.61       288.727       288.717
          2.6       288.605       288.607       288.607       288.699       288.708
          2.7       288.604       288.605       288.604       288.597       288.691
          2.8       288.603       288.603       288.599       288.592        288.59
          2.9         288.6         288.6       288.593       288.578        288.45
            3       288.598       288.594       288.586       288.464       288.451
          3.1       288.593       288.587       288.558       288.462       288.446
          3.2       288.583       288.579       288.458       288.462       288.444
          3.3       288.571       288.498       288.457       288.461       288.443
          3.4       288.538       288.452       288.457        288.46       288.443
          3.5        288.32       288.445       288.454       288.459       288.443
          3.6       288.318        288.41        288.45       288.456        288.44
          3.7       288.316       288.323        288.44        288.45       288.434
          3.8       288.316       288.323       288.387       288.441       288.431
          3.9       288.315       288.321       288.319       288.425       288.416
            4       288.315       288.319       288.318       288.304       288.404
          4.1       288.314       288.317       288.312       288.303       288.304
          4.2       288.314       288.313       288.307       288.294       288.155
          4.3       288.311       288.307       288.299       288.235       288.159
          4.4       288.304         288.3       288.279       288.178       288.161
          4.5       288.296       288.291       288.177       288.178       288.159
          4.6       288.284       288.215       288.177       288.177       288.162
          4.7       288.263       288.165       288.174       288.176       288.161
          4.8       288.124        288.16        288.17       288.175        288.16
          4.9       288.033       288.136       288.165       288.171       288.157
            5       288.033       288.044       288.154       288.165       288.153
          5.1       288.032       288.042       288.076       288.156       288.141
          5.2       288.031        288.04       288.037        288.14       288.136
          5.3       288.031       288.037       288.035       288.061       288.117
          5.4        288.03       288.033       288.029        288.02       288.015
          5.5       288.029       288.029       288.023       288.009       287.884
          5.6       288.026       288.023       288.013       287.928       287.885
          5.7       288.019       288.014       287.991       287.899       287.884
          5.8       288.011       288.003       287.918       287.898       287.884
          5.9       287.996       287.919       287.896       287.898       287.883
            6       287.968       287.885       287.894       287.896       287.878
          6.1       287.805       287.879        287.89       287.894       287.879
          6.2       287.765       287.839       287.883       287.889       287.876
          6.3       287.765        287.78        287.87       287.884       287.872
          6.4       287.765       287.767       287.774       287.872       287.864
          6.5       287.764       287.764        287.76       287.846        287.85
          6.6        287.76        287.76       287.757       287.756        287.83
          6.7       287.756       287.755       287.751       287.742       287.716
          6.8       287.751        287.75       287.744       287.724       287.616
          6.9       287.745       287.742       287.731       287.631       287.609
            7       287.737       287.733       287.691       287.626       287.609
          7.1       287.728       287.717       287.624       287.625       287.611
          7.2        287.71       287.635       287.622       287.624       287.609
          7.3       287.655       287.611       287.619       287.622       287.604
          7.4       287.497       287.599       287.614       287.618       287.604
          7.5       287.498       287.538       287.604       287.614       287.601
          7.6       287.498       287.499       287.583       287.606       287.595
          7.7       287.497       287.497       287.492        287.59       287.584
          7.8       287.492       287.492        287.49       287.521       287.571
          7.9       287.488       287.487       287.484       287.476       287.538
            8       287.482       287.481       287.476       287.465       287.354
          8.1       287.476       287.475       287.466       287.417       287.345
          8.2       287.469       287.466        287.45       287.358       287.341
          8.3        287.46       287.454       287.371       287.356       287.343
          8.4       287.448       287.424       287.353       287.355       287.341
          8.5       287.422       287.343       287.352       287.354        287.34
          8.6        287.28       287.337       287.347       287.351       287.338
          8.7       287.232       287.318        287.34       287.347       287.334
          8.8       287.232       287.237       287.328       287.341        287.33
          8.9       287.232       287.233       287.262        287.33       287.322
            9        287.23       287.228       287.227       287.307       287.309
          9.1       287.224       287.223       287.221       287.216       287.286
          9.2       287.218       287.218       287.214       287.205       287.184
          9.3       287.213       287.211       287.205       287.185       287.088
          9.4       287.205       287.202       287.191       287.096       287.083
          9.5       287.196       287.192       287.156       287.094        287.08
          9.6       287.187       287.176       287.091       287.093        287.08
          9.7       287.168       287.082       287.089       287.092       287.075
          9.8        287.11       287.078       287.087       287.089       287.076
          9.9       286.974       287.066       287.081       287.085       287.074
           10       286.974       286.977       287.071        287.08       287.068
         10.1       286.973       286.975       287.045       287.071       287.063
         10.2       286.972       286.971       286.968       287.053       287.052
         10.3       286.967       286.965       286.963       286.962       287.029
         10.4        286.96        286.96       286.956       286.949       286.993
         10.5       286.954       286.953       286.948       286.933       286.826
         10.6       286.947       286.944       286.936       286.869       286.826
         10.7       286.938       286.934       286.911       286.837       286.824
         10.8       286.929        286.92       286.832       286.836       286.824
         10.9       286.913       286.862       286.832       286.835       286.823
           11       286.877       286.821        286.83       286.833        286.82
         11.1       286.718       286.812       286.826        286.83       286.815
         11.2       286.717       286.776       286.817       286.824       286.813
         11.3       286.717       286.722       286.799       286.817       286.807
         11.4       286.716       286.718       286.714       286.801       286.797
         11.5       286.714       286.711        286.71       286.757       286.776
         11.6       286.707       286.706       286.703       286.696       286.748
         11.7         286.7       286.699       286.694       286.682       286.577
         11.8       286.693       286.691       286.683       286.645       286.576
         11.9       286.684        286.68       286.664       286.585       286.572
           12       286.675       286.667       286.584       286.583       286.571
         12.1       286.661       286.636        286.58       286.583       286.571
         12.2        286.63       286.571       286.578       286.581       286.567
         12.3       286.495       286.562       286.574       286.578       286.566
         12.4       286.469       286.534       286.567       286.573       286.562
         12.5       286.469       286.473        286.55       286.566       286.556
         12.6       286.468        286.47       286.476       286.553       286.547
         12.7       286.465       286.463       286.462       286.517        286.53
         12.8       286.458       286.457       286.454       286.448       286.502
         12.9       286.451        286.45       286.445       286.434       286.354
           13       286.443       286.441       286.435       286.401       286.331
         13.1       286.434       286.431       286.416       286.339       286.324
         13.2       286.425       286.418       286.345       286.337       286.324
         13.3       286.412       286.387       286.333       286.336       286.324
         13.4       286.383       286.325       286.331       286.334       286.322
         13.5       286.256       286.316       286.327       286.331       286.318
         13.6        286.23       286.289        286.32       286.326       286.315
         13.7       286.229        286.23       286.303       286.319       286.306
         13.8       286.228       286.226       286.233       286.305       286.299
         13.9       286.221        286.22       286.218       286.267       286.284
           14       286.214       286.213        286.21       286.203       286.252
         14.1       286.206       286.205       286.201       286.189       286.127
         14.2       286.198       286.196        286.19       286.156        286.09
         14.3       286.189       286.186        286.17       286.098       286.083
         14.4       286.179       286.172       286.099       286.095       286.084
         14.5       286.165        286.14       286.092       286.094       286.082
         14.6       286.134       286.082       286.089       286.092       286.077
         14.7       286.018       286.073       286.085       286.088       286.076
         14.8       285.992       286.042       286.076       286.083       286.068
         14.9       285.992       285.991       286.058       286.075       286.066
           15       285.988       285.987       285.989        286.06       286.054
         15.1       285.981        285.98       285.977       286.018       286.034
         15.2       285.973       285.972       285.969       285.962       286.004
         15.3       285.964       285.964        285.96       285.947       285.875
         15.4       285.956       285.954       285.946       285.907       285.851
         15.5       285.946       285.943       285.924       285.861       285.849
         15.6       285.935       285.928       285.856       285.858       285.847
         15.7       285.921       285.884       285.854       285.856       285.844
         15.8       285.882       285.844       285.851       285.853       285.841
         15.9       285.763       285.832       285.845       285.849       285.836
           16       285.758        285.79       285.835       285.842       285.833
         16.1       285.757       285.756       285.811       285.833       285.825
         16.2       285.751        285.75       285.748       285.815       285.813
         16.3       285.743       285.742        285.74       285.757       285.792
         16.4       285.734       285.733       285.731       285.723       285.751
         16.5       285.725       285.724        285.72       285.705       285.631
         16.6       285.716       285.714       285.705       285.649        285.62
         16.7       285.705       285.702       285.675       285.626       285.613
         16.8       285.695       285.684       285.622       285.623       285.612
         16.9       285.676       285.624       285.619       285.621       285.609
           17       285.619       285.607       285.615       285.617       285.605
         17.1       285.529       285.591       285.607       285.611       285.601
         17.2       285.527       285.532       285.595       285.604       285.593
         17.3       285.524       285.522       285.559       285.593       285.585
         17.4       285.516       285.515       285.513       285.568        285.57
         17.5       285.507       285.506       285.504         285.5       285.543
         17.6       285.498       285.497       285.494       285.485       285.476
         17.7       285.488       285.487       285.482       285.461       285.397
         17.8       285.478       285.475       285.464       285.401       285.386
         17.9       285.467       285.461       285.418       285.394       285.384
           18       285.454       285.436        285.39       285.391       285.379
         18.1       285.427       285.382       285.386       285.388       285.377
         18.2       285.336        285.37        285.38       285.382       285.372
         18.3         285.3       285.345       285.371       285.376       285.365
         18.4       285.297       285.297       285.353       285.367       285.355
         18.5       285.291        285.29       285.296       285.351       285.344
         18.6       285.282       285.281       285.279       285.312       285.324
         18.7       285.272       285.271       285.269       285.264       285.294
         18.8       285.262       285.261       285.258       285.246       285.188
         18.9       285.252        285.25       285.243       285.206       285.166
           19       285.241       285.238       285.218        285.17       285.158
         19.1       285.229        285.22       285.165       285.164       285.155
         19.2       285.211       285.175       285.159       285.161        285.15
         19.3       285.166       285.148       285.153       285.155       285.144
         19.4       285.079       285.132       285.146       285.149       285.136
         19.5       285.072       285.085       285.133       285.141       285.131
         19.6       285.067       285.066       285.101       285.129       285.122
         19.7       285.058       285.057       285.057       285.105       285.106
         19.8       285.048       285.048       285.046       285.047       285.079
         19.9       285.038       285.037       285.035       285.027        285.02
           20       285.027       285.026       285.021       285.002       284.946
         20.1       285.016       285.014       285.002        284.95       284.934
         20.2       285.004       284.999       284.959        284.94       284.931
         20.3        284.99       284.972       284.935       284.935       284.925
         20.4       284.961       284.926       284.928        284.93       284.919
         20.5       284.879       284.912       284.921       284.923       284.912
         20.6       284.849       284.883        284.91       284.915       284.904
         20.7       284.844       284.844       284.889       284.905       284.895
         20.8       284.836       284.835       284.839       284.887       284.882
         20.9       284.825       284.825       284.823       284.844       284.863
           21       284.815       284.814       284.812       284.807       284.821
         21.1       284.804       284.803         284.8       284.786       284.737
         21.2       284.792        284.79       284.783       284.742       284.716
         21.3        284.78       284.776       284.752       284.718       284.708
         21.4       284.767       284.756       284.713       284.712       284.702
         21.5       284.745        284.71       284.705       284.706       284.695
         21.6       284.686       284.691       284.697       284.699       284.687
         21.7        284.63       284.669       284.687       284.691       284.679
         21.8       284.622       284.626        284.67       284.681       284.669
         21.9       284.614       284.614        284.63       284.666       284.657
           22       284.603       284.603       284.602       284.633       284.641
         22.1       284.592       284.592        284.59       284.588       284.607
         22.2       284.581        284.58       284.578       284.568       284.535
         22.3       284.569       284.568       284.562       284.533       284.498
         22.4       284.556       284.554       284.536       284.499       284.488
         22.5       284.543       284.535       284.495        284.49        284.48
         22.6       284.524       284.497       284.482       284.483       284.473
         22.7       284.479        284.47       284.474       284.476       284.466
         22.8       284.415       284.451       284.464       284.467       284.458
         22.9       284.401       284.412       284.449       284.457       284.449
           23       284.393       284.393       284.416       284.443       284.436
         23.1       284.382       284.382       284.382       284.415       284.419
         23.2        284.37        284.37       284.368       284.371       284.391
         23.3       284.358       284.358       284.356       284.348       284.329
         23.4       284.346       284.345        284.34       284.317       284.281
         23.5       284.333       284.331       284.317       284.281       284.268
         23.6        284.32       284.313       284.279       284.268        284.26
         23.7       284.302        284.28       284.261       284.261       284.251
         23.8       284.262       284.249       284.252       284.253       284.243
         23.9       284.201        284.23       284.242       284.244       284.235
           24       284.181       284.196       284.227       284.234       284.225
         24.1       284.172       284.172       284.197       284.219       284.213
         24.2       284.161        284.16       284.163       284.194       284.193
         24.3       284.148       284.148       284.147       284.152        284.17
         24.4       284.136       284.135       284.133       284.127       284.111
         24.5       284.123       284.122       284.118       284.098       284.061
         24.6        284.11       284.108       284.095       284.063       284.048
         24.7       284.096        284.09        284.06       284.048       284.038
         24.8       284.078       284.059        284.04       284.039        284.03
         24.9        284.04       284.028        284.03       284.031       284.021
           25       283.985       284.008       284.019       284.021       284.012
         25.1       283.961       283.976       284.003        284.01       284.002
         25.2       283.951       283.952       283.975       283.995       283.989
         25.3       283.939       283.939       283.943        283.97       283.971
         25.4       283.926       283.926       283.925       283.932       283.944
         25.5       283.913       283.913       283.911       283.905       283.889
         25.6         283.9       283.899       283.895       283.876       283.845
         25.7       283.886       283.884       283.872       283.843       283.828
         25.8       283.872       283.865       283.839       283.827       283.818
         25.9       283.852       283.836       283.819       283.818       283.809
           26       283.815       283.807       283.807       283.808       283.799
         26.1       283.765       283.784       283.796       283.798       283.789
         26.2       283.741       283.754       283.779       283.786       283.778
         26.3        283.73       283.731       283.751        283.77       283.765
         26.4       283.717       283.717       283.721       283.744       283.744
         26.5       283.704       283.704       283.703       283.709       283.713
         26.6       283.691        283.69       283.688       283.681       283.667
         26.7       283.677       283.676       283.671       283.652       283.626
         26.8       283.662        283.66       283.646       283.623       283.606
         26.9       283.647        283.64       283.617       283.607       283.596
           27       283.625       283.611       283.597       283.596       283.587
         27.1       283.586       283.583       283.585       283.586       283.576
         27.2       283.544        283.56       283.572       283.575       283.565
         27.3       283.521       283.531       283.553       283.562       283.553
         27.4       283.508        283.51       283.525       283.544       283.538
         27.5       283.495       283.495       283.498       283.516       283.519
         27.6       283.481       283.481        283.48       283.484       283.486
         27.7       283.467       283.466       283.464       283.456       283.438
         27.8       283.453       283.451       283.445       283.427       283.405
         27.9       283.438       283.434        283.42       283.401       283.388
           28       283.421       283.412       283.393       283.385       283.376
         28.1       283.395       283.384       283.375       283.374       283.364
         28.2       283.357       283.359       283.361       283.363        283.35
         28.3       283.321       283.333       283.346        283.35       283.341
         28.4         283.3       283.307       283.325       283.336       283.325
         28.5       283.286       283.287       283.298       283.315        283.31
         28.6       283.272       283.272       283.275       283.287       283.287
         28.7       283.257       283.257       283.256       283.257       283.252
         28.8       283.243       283.242       283.238       283.229       283.213
         28.9       283.228       283.226       283.217       283.201       283.184
           29       283.211       283.207       283.193        283.18       283.167
         29.1        283.19       283.183       283.171       283.165       283.153
         29.2        283.16       283.157       283.154       283.153       283.141
         29.3       283.126       283.131       283.138       283.141       283.131
         29.4       283.103       283.107       283.117       283.125       283.114
         29.5       283.085       283.087       283.093       283.102       283.096
         29.6       283.067       283.068       283.072       283.076       283.067
         29.7        283.05        283.05       283.051       283.049       283.041
         29.8       283.033       283.032       283.029       283.026       283.016
         29.9       283.014       283.012       283.008       283.004       282.995
           30       282.992       282.991       282.988       282.985       282.975
         30.1        282.97       282.969       282.968       282.966       282.955
         30.2       282.947       282.948       282.948       282.948       282.938
         30.3       282.926       282.926       282.927       282.929       282.918
         30.4       282.904       282.905       282.907       282.909       282.899
         30.5       282.884       282.885       282.886       282.887       282.879
         30.6       282.864       282.865       282.865       282.865       282.856
         30.7       282.845       282.845       282.844       282.843       282.834
         30.8       282.825       282.824       282.823       282.822       282.811
         30.9       282.804       282.804       282.803       282.801       282.791
           31       282.783       282.783       282.782        282.78       282.771
         31.1       282.762       282.762       282.761        282.76        282.75
         31.2       282.741       282.741        282.74        282.74       282.731
         31.3       282.719       282.719        282.72        282.72       282.711
         31.4       282.698       282.698       282.699         282.7        282.69
         31.5       282.677       282.678       282.678       282.679        282.67
         31.6       282.657       282.657       282.657       282.657       282.646
         31.7       282.637       282.636       282.636       282.636       282.627
         31.8       282.616       282.616       282.615       282.615       282.603
         31.9       282.595       282.595       282.594       282.594       282.584
           32       282.575       282.574       282.574       282.573       282.562
         32.1       282.554       282.553       282.553       282.552       282.543
         32.2       282.532       282.532       282.532       282.531        282.52
         32.3       282.511       282.511       282.511       282.511       282.502
         32.4        282.49        282.49        282.49        282.49       282.479
         32.5       282.469       282.469       282.469       282.469        282.46
         32.6       282.448       282.448       282.448       282.448       282.437
         32.7       282.427       282.427       282.427       282.427       282.418
         32.8       282.407       282.406       282.406       282.406       282.396
         32.9       282.386       282.386       282.385       282.384       282.374
           33       282.365       282.365       282.364       282.363       282.354
         33.1       282.344       282.344       282.343       282.342       282.332
         33.2       282.322       282.322       282.322       282.322       282.313
         33.3       282.301       282.301       282.301       282.301       282.291
         33.4        282.28        282.28        282.28        282.28       282.269
         33.5       282.259       282.259       282.259       282.259        282.25
         33.6       282.238       282.238       282.238       282.238       282.228
         33.7       282.217       282.217       282.217       282.216       282.205
         33.8       282.196       282.196       282.196       282.195       282.186
         33.9       282.175       282.175       282.174       282.174       282.165
           34       282.154       282.154       282.153       282.153       282.143
         34.1       282.133       282.133       282.132       282.132       282.123
         34.2       282.111       282.111       282.111       282.111       282.102
         34.3        282.09        282.09        282.09        282.09        282.08
         34.4       282.069       282.069       282.069       282.069       282.057
         34.5       282.048       282.048       282.048       282.047       282.039
         34.6       282.026       282.026       282.026       282.026       282.017
         34.7       282.005       282.005       282.005       282.005       281.994
         34.8       281.984       281.984       281.984       281.983       281.975
         34.9       281.963       281.963       281.963       281.962       281.953
           35       281.942       281.942       281.941       281.941       281.931
         35.1        281.92        281.92        281.92        281.92        281.91
         35.2       281.899       281.899       281.899       281.898       281.888
         35.3       281.878       281.878       281.877       281.877       281.868