# Probe 0 (1 0 0)
# Probe 1 (10 0 0)
# Probe 2 (20 0 0)
# Probe 3 (30 0 0)
# Probe 4 (40 0 0)
#       Probe             0             1             2             3             4
#        Time
            0             (0 0 0)             (0 0 0)             (0 0 0)             (0 0 0)             (0 0 0)
          0.1             (9.70411e-13 0 0)             (-6.20328e-13 0 0)             (0.00221331 0 0)             (0.00252507 0 0)             (0.444981 0 0)
          0.2             (0.002407 0 0)             (0.00246108 0 0)             (0.00248304 0 0)             (0.441533 0 0)             (0.454808 0 0)
          0.3             (-3.51011e-05 0 0)             (0.00246593 0 0)             (0.00270029 0 0)             (0.456157 0 0)             (0.451966 0 0)
          0.4             (1.44683e-05 0 0)             (-5.78596e-05 0 0)             (0.446102 0 0)             (0.448402 0 0)             (0.451067 0 0)
          0.5             (5.1897e-05 0 0)             (0.000754197 0 0)             (0.450973 0 0)             (0.468456 0 0)             (0.447458 0 0)
          0.6             (0.000109904 0 0)             (0.44876 0 0)             (0.449853 0 0)             (0.452178 0 0)             (0.451592 0 0)
          0.7             (0.0366327 0 0)             (0.449192 0 0)             (0.442582 0 0)             (0.444181 0 0)             (0.4509 0 0)
          0.8             (-0.00256779 0 0)             (0.430746 0 0)             (0.45621 0 0)             (0.451761 0 0)             (0.450754 0 0)
          0.9             (0.00182019 0 0)             (0.314494 0 0)             (0.430144 0 0)             (0.433533 0 0)             (0.447341 0 0)
            1             (-0.000492835 0 0)             (0.00145375 0 0)             (0.402671 0 0)             (0.436393 0 0)             (0.452469 0 0)
          1.1             (0.000439986 0 0)             (0.00695991 0 0)             (0.0102433 0 0)             (0.434993 0 0)             (0.449414 0 0)
          1.2             (0.00082085 0 0)             (0.00278495 0 0)             (0.0120609 0 0)             (0.409696 0 0)             (0.450072 0 0)
          1.3             (0.000494859 0 0)             (0.00398311 0 0)             (0.0129902 0 0)             (0.0113477 0 0)             (0.448986 0 0)
          1.4             (0.00022827 0 0)             (0.0092156 0 0)             (0.0179154 0 0)             (0.0248375 0 0)             (0.441523 0 0)
          1.5             (0.000195613 0 0)             (0.0114318 0 0)             (0.0280684 0 0)             (0.0527588 0 0)             (0.477282 0 0)
          1.6             (0.000611546 0 0)             (0.0153181 0 0)             (0.0521999 0 0)             (0.160922 0 0)             (0.451189 0 0)
          1.7             (0.000803204 0 0)             (0.0239649 0 0)             (0.0778699 0 0)             (0.450159 0 0)             (0.451746 0 0)
          1.8             (0.00215306 0 0)             (0.0430142 0 0)             (0.439626 0 0)             (0.449987 0 0)             (0.478375 0 0)
          1.9             (0.00891669 0 0)             (0.0712807 0 0)             (0.447783 0 0)             (0.450559 0 0)             (0.451891 0 0)
            2             (0.0151563 0 0)             (0.435457 0 0)             (0.437306 0 0)             (0.450078 0 0)             (0.455831 0 0)
          2.1             (0.0770698 0 0)             (0.409864 0 0)             (0.422417 0 0)             (0.448044 0 0)             (0.451885 0 0)
          2.2             (0.00449094 0 0)             (0.377646 0 0)             (0.409591 0 0)             (0.448317 0 0)             (0.450189 0 0)
          2.3             (0.00210104 0 0)             (0.162116 0 0)             (0.398424 0 0)             (0.434781 0 0)             (0.450614 0 0)
          2.4             (0.00299464 0 0)             (0.0102607 0 0)             (0.368562 0 0)             (0.426617 0 0)             (0.452058 0 0)
          2.5             (8.2085e-05 0 0)             (0.00736628 0 0)             (0.0169245 0 0)             (0.407267 0 0)             (0.452378 0 0)
          2.6             (0.000296903 0 0)             (0.00577334 0 0)             (0.0219607 0 0)             (0.335435 0 0)             (0.450418 0 0)
          2.7             (0.000195605 0 0)             (0.0108761 0 0)             (0.0211192 0 0)             (0.0349419 0 0)             (0.454197 0 0)
          2.8             (0.000231532 0 0)             (0.0117499 0 0)             (0.0293877 0 0)             (0.0618729 0 0)             (0.43071 0 0)
          2.9             (9.55871e-05 0 0)             (0.013752 0 0)             (0.0466759 0 0)             (0.10202 0 0)             (0.452312 0 0)
            3             (0.000764425 0 0)             (0.0247772 0 0)             (0.0624834 0 0)             (0.450599 0 0)             (0.449699 0 0)
          3.1             (0.00234841 0 0)             (0.0403649 0 0)             (0.147984 0 0)             (0.449236 0 0)             (0.475659 0 0)
          3.2             (0.00520338 0 0)             (0.0588325 0 0)             (0.440269 0 0)             (0.449741 0 0)             (0.476698 0 0)
          3.3             (0.0112528 0 0)             (0.290734 0 0)             (0.436746 0 0)             (0.445059 0 0)             (0.481604 0 0)
          3.4             (0.0608849 0 0)             (0.40723 0 0)             (0.432529 0 0)             (0.443205 0 0)             (0.458201 0 0)
          3.5             (0.0451447 0 0)             (0.380574 0 0)             (0.416636 0 0)             (0.441364 0 0)             (0.452504 0 0)
          3.6             (0.00308837 0 0)             (0.272088 0 0)             (0.403156 0 0)             (0.435084 0 0)             (0.45993 0 0)
          3.7             (-4.085e-05 0 0)             (0.00573187 0 0)             (0.375398 0 0)             (0.423363 0 0)             (0.473359 0 0)
          3.8             (0.000957535 0 0)             (0.00555904 0 0)             (0.221448 0 0)             (0.408852 0 0)             (0.452381 0 0)
          3.9             (0.000204645 0 0)             (0.00650807 0 0)             (0.0181863 0 0)             (0.372468 0 0)             (0.481037 0 0)
            4             (0.000259824 0 0)             (0.0113879 0 0)             (0.0231818 0 0)             (0.0345489 0 0)             (0.454126 0 0)
          4.1             (0.000921231 0 0)             (0.0137078 0 0)             (0.0347496 0 0)             (0.0618925 0 0)             (0.471861 0 0)
          4.2             (0.000967068 0 0)             (0.0164235 0 0)             (0.0491398 0 0)             (0.094704 0 0)             (0.466494 0 0)
          4.3             (0.00240105 0 0)             (0.0284466 0 0)             (0.0689073 0 0)             (0.274819 0 0)             (0.45398 0 0)
          4.4             (0.00286665 0 0)             (0.0409014 0 0)             (0.122964 0 0)             (0.449464 0 0)             (0.452468 0 0)
          4.5             (0.00443581 0 0)             (0.0636968 0 0)             (0.437766 0 0)             (0.448553 0 0)             (0.468213 0 0)
          4.6             (0.00637183 0 0)             (0.274356 0 0)             (0.435049 0 0)             (0.444327 0 0)             (0.453802 0 0)
          4.7             (0.0203904 0 0)             (0.403498 0 0)             (0.425756 0 0)             (0.444611 0 0)             (0.451622 0 0)
          4.8             (0.00584484 0 0)             (0.374222 0 0)             (0.413137 0 0)             (0.442791 0 0)             (0.454284 0 0)
          4.9             (0.00131961 0 0)             (0.296471 0 0)             (0.399729 0 0)             (0.433907 0 0)             (0.449988 0 0)
            5             (0.000718976 0 0)             (0.0107931 0 0)             (0.369498 0 0)             (0.422668 0 0)             (0.454117 0 0)
          5.1             (0.000673708 0 0)             (0.0119674 0 0)             (0.138 0 0)             (0.405177 0 0)             (0.482221 0 0)
          5.2             (5.22684e-05 0 0)             (0.013071 0 0)             (0.0234775 0 0)             (0.375213 0 0)             (0.450398 0 0)
          5.3             (0.000339134 0 0)             (0.0121185 0 0)             (0.03444 0 0)             (0.15879 0 0)             (0.461198 0 0)
          5.4             (0.000275941 0 0)             (0.0163163 0 0)             (0.0419135 0 0)             (0.0760901 0 0)             (0.455098 0 0)
          5.5             (0.000445085 0 0)             (0.0219063 0 0)             (0.0544928 0 0)             (0.115306 0 0)             (0.468149 0 0)
          5.6             (0.00155295 0 0)             (0.0323015 0 0)             (0.0756687 0 0)             (0.363262 0 0)             (0.455128 0 0)
          5.7             (0.00472998 0 0)             (0.0429923 0 0)             (0.144236 0 0)             (0.446771 0 0)             (0.455044 0 0)
          5.8             (0.00489845 0 0)             (0.0683575 0 0)             (0.364175 0 0)             (0.443655 0 0)             (0.455198 0 0)
          5.9             (0.0088249 0 0)             (0.319487 0 0)             (0.42417 0 0)             (0.440953 0 0)             (0.452243 0 0)
            6             (0.0348841 0 0)             (0.389207 0 0)             (0.414402 0 0)             (0.439542 0 0)             (0.469891 0 0)
          6.1             (0.00150065 0 0)             (0.355328 0 0)             (0.403615 0 0)             (0.436583 0 0)             (0.455008 0 0)
          6.2             (0.0015205 0 0)             (0.229673 0 0)             (0.386132 0 0)             (0.429618 0 0)             (0.45619 0 0)
          6.3             (0.00114789 0 0)             (0.0492055 0 0)             (0.351293 0 0)             (0.420215 0 0)             (0.452085 0 0)
          6.4             (0.000515025 0 0)             (0.0189033 0 0)             (0.0706164 0 0)             (0.396475 0 0)             (0.455795 0 0)
          6.5             (0.000513347 0 0)             (0.0184085 0 0)             (0.0393387 0 0)             (0.336624 0 0)             (0.455433 0 0)
          6.6             (0.00128377 0 0)             (0.0204625 0 0)             (0.0474492 0 0)             (0.0953182 0 0)             (0.460427 0 0)
          6.7             (0.00399886 0 0)             (0.0257705 0 0)             (0.0537545 0 0)             (0.102539 0 0)             (0.45927 0 0)
          6.8             (0.00265564 0 0)             (0.0318022 0 0)             (0.0691762 0 0)             (0.146062 0 0)             (0.48516 0 0)
          6.9             (0.00490556 0 0)             (0.0415042 0 0)             (0.0953039 0 0)             (0.429629 0 0)             (0.485068 0 0)
            7             (0.00557694 0 0)             (0.0554473 0 0)             (0.209438 0 0)             (0.440467 0 0)             (0.46806 0 0)
          7.1             (0.00791087 0 0)             (0.0872453 0 0)             (0.416195 0 0)             (0.439811 0 0)             (0.453196 0 0)
          7.2             (0.0118461 0 0)             (0.324671 0 0)             (0.41208 0 0)             (0.438161 0 0)             (0.457276 0 0)
          7.3             (0.0753131 0 0)             (0.358937 0 0)             (0.403123 0 0)             (0.434586 0 0)             (0.484909 0 0)
          7.4             (-0.00278277 0 0)             (0.323836 0 0)             (0.389865 0 0)             (0.428584 0 0)             (0.457026 0 0)
          7.5             (0.00160362 0 0)             (0.134898 0 0)             (0.366167 0 0)             (0.422565 0 0)             (0.454311 0 0)
          7.6             (0.00145873 0 0)             (0.021517 0 0)             (0.309035 0 0)             (0.410126 0 0)             (0.456952 0 0)
          7.7             (0.00052028 0 0)             (0.023494 0 0)             (0.0398782 0 0)             (0.380324 0 0)             (0.471368 0 0)
          7.8             (0.00114018 0 0)             (0.0250977 0 0)             (0.0535252 0 0)             (0.199021 0 0)             (0.455753 0 0)
          7.9             (0.00382785 0 0)             (0.0274996 0 0)             (0.0590487 0 0)             (0.0965776 0 0)             (0.486741 0 0)
            8             (0.00386765 0 0)             (0.0317956 0 0)             (0.06934 0 0)             (0.131669 0 0)             (0.452908 0 0)
          8.1             (0.00429368 0 0)             (0.0386823 0 0)             (0.0885017 0 0)             (0.265703 0 0)             (0.457576 0 0)
          8.2             (0.00287099 0 0)             (0.0505331 0 0)             (0.130975 0 0)             (0.440481 0 0)             (0.480683 0 0)
          8.3             (0.00676784 0 0)             (0.0726241 0 0)             (0.365103 0 0)             (0.438818 0 0)             (0.457756 0 0)
          8.4             (0.00907338 0 0)             (0.149872 0 0)             (0.409177 0 0)             (0.435327 0 0)             (0.458016 0 0)
          8.5             (0.0250501 0 0)             (0.36829 0 0)             (0.401404 0 0)             (0.433314 0 0)             (0.454588 0 0)
          8.6             (0.0672951 0 0)             (0.335532 0 0)             (0.389297 0 0)             (0.430357 0 0)             (0.454424 0 0)
          8.7             (0.0029165 0 0)             (0.278486 0 0)             (0.372945 0 0)             (0.424924 0 0)             (0.458524 0 0)
          8.8             (0.00225836 0 0)             (0.0279919 0 0)             (0.340969 0 0)             (0.41441 0 0)             (0.457698 0 0)
          8.9             (0.00118367 0 0)             (0.0267252 0 0)             (0.144886 0 0)             (0.396205 0 0)             (0.455676 0 0)
            9             (0.000878233 0 0)             (0.0280937 0 0)             (0.0564502 0 0)             (0.350986 0 0)             (0.457881 0 0)
          9.1             (0.00341574 0 0)             (0.0305627 0 0)             (0.0645299 0 0)             (0.106341 0 0)             (0.457466 0 0)
          9.2             (0.00414632 0 0)             (0.0327575 0 0)             (0.0714409 0 0)             (0.126059 0 0)             (0.448198 0 0)
          9.3             (0.00255291 0 0)             (0.0398023 0 0)             (0.0870605 0 0)             (0.17473 0 0)             (0.456743 0 0)
          9.4             (0.00372532 0 0)             (0.0482122 0 0)             (0.115699 0 0)             (0.439897 0 0)             (0.459993 0 0)
          9.5             (0.00711668 0 0)             (0.0639253 0 0)             (0.211054 0 0)             (0.435482 0 0)             (0.455875 0 0)
          9.6             (0.00817867 0 0)             (0.099986 0 0)             (0.405984 0 0)             (0.433952 0 0)             (0.458988 0 0)
          9.7             (0.0165052 0 0)             (0.365839 0 0)             (0.397552 0 0)             (0.430692 0 0)             (0.476899 0 0)
          9.8             (0.0591015 0 0)             (0.338547 0 0)             (0.388782 0 0)             (0.430107 0 0)             (0.456983 0 0)
          9.9             (0.00207864 0 0)             (0.298203 0 0)             (0.375863 0 0)             (0.423728 0 0)             (0.456211 0 0)
           10             (0.00228311 0 0)             (0.0250725 0 0)             (0.352795 0 0)             (0.415952 0 0)             (0.45949 0 0)
         10.1             (0.00213874 0 0)             (0.0284756 0 0)             (0.279774 0 0)             (0.400589 0 0)             (0.458934 0 0)
         10.2             (0.00284215 0 0)             (0.0307528 0 0)             (0.0589383 0 0)             (0.369567 0 0)             (0.457041 0 0)
         10.3             (0.00286355 0 0)             (0.0333426 0 0)             (0.0685645 0 0)             (0.112396 0 0)             (0.483437 0 0)
         10.4             (0.00406181 0 0)             (0.0374416 0 0)             (0.0759902 0 0)             (0.127204 0 0)             (0.486198 0 0)
         10.5             (0.00361253 0 0)             (0.0414114 0 0)             (0.0890851 0 0)             (0.161349 0 0)             (0.460727 0 0)
         10.6             (0.00581594 0 0)             (0.0497113 0 0)             (0.11201 0 0)             (0.349377 0 0)             (0.46097 0 0)
         10.7             (0.00548942 0 0)             (0.0613233 0 0)             (0.166259 0 0)             (0.439034 0 0)             (0.460644 0 0)
         10.8             (0.00652651 0 0)             (0.0884025 0 0)             (0.405397 0 0)             (0.433711 0 0)             (0.460782 0 0)
         10.9             (0.0118719 0 0)             (0.248506 0 0)             (0.398001 0 0)             (0.42859 0 0)             (0.460552 0 0)
           11             (0.0355036 0 0)             (0.341576 0 0)             (0.386912 0 0)             (0.425108 0 0)             (0.459787 0 0)
         11.1             (2.61239e-05 0 0)             (0.306123 0 0)             (0.373325 0 0)             (0.422343 0 0)             (0.468909 0 0)
         11.2             (0.00360463 0 0)             (0.190971 0 0)             (0.352819 0 0)             (0.416936 0 0)             (0.457032 0 0)
         11.3             (0.00259304 0 0)             (0.027971 0 0)             (0.307213 0 0)             (0.404348 0 0)             (0.460272 0 0)
         11.4             (0.000992303 0 0)             (0.032317 0 0)             (0.0618341 0 0)             (0.379823 0 0)             (0.462861 0 0)
         11.5             (0.00142932 0 0)             (0.0330704 0 0)             (0.0727514 0 0)             (0.274572 0 0)             (0.48836 0 0)
         11.6             (0.00357387 0 0)             (0.0398368 0 0)             (0.0789398 0 0)             (0.129975 0 0)             (0.468633 0 0)
         11.7             (0.00358686 0 0)             (0.0428628 0 0)             (0.090796 0 0)             (0.162443 0 0)             (0.455602 0 0)
         11.8             (0.00383611 0 0)             (0.0498652 0 0)             (0.110896 0 0)             (0.257933 0 0)             (0.457582 0 0)
         11.9             (0.00521662 0 0)             (0.0626462 0 0)             (0.153839 0 0)             (0.437245 0 0)             (0.461786 0 0)
           12             (0.00957485 0 0)             (0.0851924 0 0)             (0.391646 0 0)             (0.433966 0 0)             (0.461686 0 0)
         12.1             (0.010454 0 0)             (0.165834 0 0)             (0.393571 0 0)             (0.428958 0 0)             (0.461194 0 0)
         12.2             (0.0290399 0 0)             (0.335346 0 0)             (0.383819 0 0)             (0.425247 0 0)             (0.468698 0 0)
         12.3             (0.0980745 0 0)             (0.30515 0 0)             (0.372044 0 0)             (0.422772 0 0)             (0.459883 0 0)
         12.4             (0.00257359 0 0)             (0.214154 0 0)             (0.353588 0 0)             (0.41679 0 0)             (0.461413 0 0)
         12.5             (0.0031113 0 0)             (0.031716 0 0)             (0.310746 0 0)             (0.406151 0 0)             (0.462299 0 0)
         12.6             (0.000831611 0 0)             (0.0351286 0 0)             (0.0945397 0 0)             (0.384692 0 0)             (0.462394 0 0)
         12.7             (0.00326939 0 0)             (0.0361353 0 0)             (0.078089 0 0)             (0.306085 0 0)             (0.456936 0 0)
         12.8             (0.00487477 0 0)             (0.0412428 0 0)             (0.0836338 0 0)             (0.136958 0 0)             (0.46301 0 0)
         12.9             (0.00481951 0 0)             (0.0465125 0 0)             (0.0955857 0 0)             (0.166614 0 0)             (0.469399 0 0)
           13             (0.00448238 0 0)             (0.0529813 0 0)             (0.114147 0 0)             (0.250329 0 0)             (0.465097 0 0)
         13.1             (0.00542128 0 0)             (0.0629617 0 0)             (0.155316 0 0)             (0.432707 0 0)             (0.483351 0 0)
         13.2             (0.00776126 0 0)             (0.0851024 0 0)             (0.364512 0 0)             (0.431746 0 0)             (0.459817 0 0)
         13.3             (0.0105167 0 0)             (0.163665 0 0)             (0.38707 0 0)             (0.428139 0 0)             (0.463292 0 0)
         13.4             (0.0269204 0 0)             (0.328339 0 0)             (0.379263 0 0)             (0.423727 0 0)             (0.462788 0 0)
         13.5             (0.0936913 0 0)             (0.298522 0 0)             (0.367546 0 0)             (0.421036 0 0)             (0.469548 0 0)
         13.6             (0.00374899 0 0)             (0.212523 0 0)             (0.350063 0 0)             (0.414036 0 0)             (0.463648 0 0)
         13.7             (0.00304605 0 0)             (0.0353912 0 0)             (0.308107 0 0)             (0.404605 0 0)             (0.491956 0 0)
         13.8             (0.00357393 0 0)             (0.0382759 0 0)             (0.104856 0 0)             (0.381924 0 0)             (0.464903 0 0)
         13.9             (0.00435649 0 0)             (0.042554 0 0)             (0.0842454 0 0)             (0.296882 0 0)             (0.458788 0 0)
           14             (0.0043662 0 0)             (0.0465582 0 0)             (0.0915016 0 0)             (0.145248 0 0)             (0.462493 0 0)
         14.1             (0.00561534 0 0)             (0.0502998 0 0)             (0.104237 0 0)             (0.175209 0 0)             (0.460618 0 0)
         14.2             (0.00462611 0 0)             (0.0560575 0 0)             (0.121391 0 0)             (0.265297 0 0)             (0.463985 0 0)
         14.3             (0.00612232 0 0)             (0.0668061 0 0)             (0.162965 0 0)             (0.431366 0 0)             (0.480679 0 0)
         14.4             (0.00675678 0 0)             (0.0884655 0 0)             (0.371399 0 0)             (0.428553 0 0)             (0.461236 0 0)
         14.5             (0.0129865 0 0)             (0.171508 0 0)             (0.380581 0 0)             (0.423974 0 0)             (0.464939 0 0)
         14.6             (0.0313931 0 0)             (0.317378 0 0)             (0.372622 0 0)             (0.421099 0 0)             (0.484541 0 0)
         14.7             (0.0670762 0 0)             (0.286535 0 0)             (0.359881 0 0)             (0.417738 0 0)             (0.464371 0 0)
         14.8             (0.0035537 0 0)             (0.189917 0 0)             (0.341925 0 0)             (0.412125 0 0)             (0.494243 0 0)
         14.9             (0.00317721 0 0)             (0.039772 0 0)             (0.297458 0 0)             (0.401007 0 0)             (0.462693 0 0)
           15             (0.00489732 0 0)             (0.0432606 0 0)             (0.098465 0 0)             (0.378217 0 0)             (0.472692 0 0)
         15.1             (0.00490118 0 0)             (0.0489033 0 0)             (0.0926917 0 0)             (0.283802 0 0)             (0.491545 0 0)
         15.2             (0.0049406 0 0)             (0.0511383 0 0)             (0.101501 0 0)             (0.161348 0 0)             (0.458565 0 0)
         15.3             (0.00494229 0 0)             (0.0540863 0 0)             (0.113553 0 0)             (0.191012 0 0)             (0.465676 0 0)
         15.4             (0.00567684 0 0)             (0.0612261 0 0)             (0.132161 0 0)             (0.303676 0 0)             (0.493085 0 0)
         15.5             (0.00666611 0 0)             (0.0708745 0 0)             (0.181201 0 0)             (0.428311 0 0)             (0.46308 0 0)
         15.6             (0.00848804 0 0)             (0.0985531 0 0)             (0.377533 0 0)             (0.42488 0 0)             (0.465806 0 0)
         15.7             (0.01369 0 0)             (0.211628 0 0)             (0.373045 0 0)             (0.419863 0 0)             (0.464319 0 0)
         15.8             (0.0362426 0 0)             (0.302073 0 0)             (0.363599 0 0)             (0.418288 0 0)             (0.465695 0 0)
         15.9             (0.0189706 0 0)             (0.268605 0 0)             (0.351571 0 0)             (0.4149 0 0)             (0.472545 0 0)
           16             (0.00396981 0 0)             (0.136615 0 0)             (0.331488 0 0)             (0.408035 0 0)             (0.465379 0 0)
         16.1             (0.00373119 0 0)             (0.0447755 0 0)             (0.271275 0 0)             (0.396952 0 0)             (0.462008 0 0)
         16.2             (0.00520549 0 0)             (0.0490221 0 0)             (0.0989543 0 0)             (0.366332 0 0)             (0.470328 0 0)
         16.3             (0.00510607 0 0)             (0.0533148 0 0)             (0.102536 0 0)             (0.227275 0 0)             (0.460289 0 0)
         16.4             (0.00552068 0 0)             (0.0556466 0 0)             (0.112644 0 0)             (0.17628 0 0)             (0.466666 0 0)
         16.5             (0.00518943 0 0)             (0.0586198 0 0)             (0.124259 0 0)             (0.216558 0 0)             (0.465364 0 0)
         16.6             (0.00632613 0 0)             (0.0657755 0 0)             (0.146065 0 0)             (0.374906 0 0)             (0.46655 0 0)
         16.7             (0.0074637 0 0)             (0.0787096 0 0)             (0.217535 0 0)             (0.423958 0 0)             (0.49513 0 0)
         16.8             (0.00867778 0 0)             (0.114213 0 0)             (0.36895 0 0)             (0.420106 0 0)             (0.467406 0 0)
         16.9             (0.0158884 0 0)             (0.275964 0 0)             (0.364145 0 0)             (0.416875 0 0)             (0.467738 0 0)
           17             (0.0544747 0 0)             (0.285998 0 0)             (0.353621 0 0)             (0.415172 0 0)             (0.46664 0 0)
         17.1             (0.00482373 0 0)             (0.24056 0 0)             (0.341873 0 0)             (0.411182 0 0)             (0.465542 0 0)
         17.2             (0.00442133 0 0)             (0.0648796 0 0)             (0.316745 0 0)             (0.403786 0 0)             (0.482332 0 0)
         17.3             (0.00472181 0 0)             (0.0509022 0 0)             (0.221793 0 0)             (0.388743 0 0)             (0.46686 0 0)
         17.4             (0.00569111 0 0)             (0.0550185 0 0)             (0.107747 0 0)             (0.345304 0 0)             (0.467774 0 0)
         17.5             (0.00569641 0 0)             (0.0580146 0 0)             (0.113076 0 0)             (0.179181 0 0)             (0.499569 0 0)
         17.6             (0.00592128 0 0)             (0.0597654 0 0)             (0.123871 0 0)             (0.19674 0 0)             (0.466144 0 0)
         17.7             (0.00597114 0 0)             (0.0645366 0 0)             (0.135365 0 0)             (0.255334 0 0)             (0.463885 0 0)
         17.8             (0.00703734 0 0)             (0.0725456 0 0)             (0.166851 0 0)             (0.419502 0 0)             (0.497047 0 0)
         17.9             (0.00861587 0 0)             (0.0906448 0 0)             (0.289205 0 0)             (0.41979 0 0)             (0.466668 0 0)
           18             (0.0120726 0 0)             (0.147785 0 0)             (0.36047 0 0)             (0.415888 0 0)             (0.4798 0 0)
         18.1             (0.0226407 0 0)             (0.285992 0 0)             (0.35433 0 0)             (0.413898 0 0)             (0.468026 0 0)
         18.2             (0.0694659 0 0)             (0.264345 0 0)             (0.34383 0 0)             (0.411709 0 0)             (0.466858 0 0)
         18.3             (0.00595858 0 0)             (0.189934 0 0)             (0.329586 0 0)             (0.406516 0 0)             (0.471429 0 0)
         18.4             (0.00489655 0 0)             (0.0561958 0 0)             (0.290332 0 0)             (0.398105 0 0)             (0.498727 0 0)
         18.5             (0.00610642 0 0)             (0.0567905 0 0)             (0.135892 0 0)             (0.376033 0 0)             (0.497851 0 0)
         18.6             (0.00616866 0 0)             (0.0608349 0 0)             (0.117633 0 0)             (0.294728 0 0)             (0.501407 0 0)
         18.7             (0.00617954 0 0)             (0.0622751 0 0)             (0.125029 0 0)             (0.195725 0 0)             (0.465259 0 0)
         18.8             (0.00645598 0 0)             (0.0648014 0 0)             (0.134791 0 0)             (0.224363 0 0)             (0.471784 0 0)
         18.9             (0.00687242 0 0)             (0.0711754 0 0)             (0.152509 0 0)             (0.32943 0 0)             (0.466415 0 0)
           19             (0.00787593 0 0)             (0.0812703 0 0)             (0.205377 0 0)             (0.416611 0 0)             (0.483688 0 0)
         19.1             (0.00918678 0 0)             (0.109979 0 0)             (0.351055 0 0)             (0.415394 0 0)             (0.469258 0 0)
         19.2             (0.0148477 0 0)             (0.224426 0 0)             (0.351984 0 0)             (0.412122 0 0)             (0.469537 0 0)
         19.3             (0.0416159 0 0)             (0.269602 0 0)             (0.343703 0 0)             (0.411013 0 0)             (0.46635 0 0)
         19.4             (0.00903907 0 0)             (0.232089 0 0)             (0.333847 0 0)             (0.407676 0 0)             (0.50264 0 0)
         19.5             (0.00575769 0 0)             (0.0955778 0 0)             (0.311034 0 0)             (0.401197 0 0)             (0.46966 0 0)