# Probe 0 (1 0 0)
# Probe 1 (10 0 0)
# Probe 2 (20 0 0)
# Probe 3 (30 0 0)
# Probe 4 (40 0 0)
#       Probe             0             1             2             3             4
#        Time
            0             (0 0 0)             (0 0 0)             (0 0 0)             (0 0 0)             (0 0 0)
          0.1             (8.94792e-13 0 0)             (-7.62957e-13 0 0)             (0.00130927 0 0)             (0.00252345 0 0)             (0.448331 0 0)
          0.2             (0.00243497 0 0)             (0.00246106 0 0)             (0.00248324 0 0)             (0.442363 0 0)             (0.453689 0 0)
          0.3             (-3.04646e-05 0 0)             (0.00246582 0 0)             (0.00269675 0 0)             (0.455555 0 0)             (0.451781 0 0)
          0.4             (1.82924e-05 0 0)             (-4.5517e-05 0 0)             (0.447848 0 0)             (0.448706 0 0)             (0.451509 0 0)
          0.5             (5.35844e-05 0 0)             (0.000721422 0 0)             (0.450994 0 0)             (0.466403 0 0)             (0.450731 0 0)
          0.6             (0.000107431 0 0)             (0.447527 0 0)             (0.450909 0 0)             (0.45286 0 0)             (0.451599 0 0)
          0.7             (0.0342131 0 0)             (0.451152 0 0)             (0.441893 0 0)             (0.445095 0 0)             (0.450823 0 0)
          0.8             (-0.00516605 0 0)             (0.430518 0 0)             (0.455497 0 0)             (0.453412 0 0)             (0.451134 0 0)
          0.9             (0.00192799 0 0)             (0.322541 0 0)             (0.430363 0 0)             (0.434066 0 0)             (0.451542 0 0)
            1             (-0.000754366 0 0)             (0.0010187 0 0)             (0.402953 0 0)             (0.436238 0 0)             (0.457657 0 0)
          1.1             (0.000950797 0 0)             (0.00621233 0 0)             (0.010579 0 0)             (0.435162 0 0)             (0.449809 0 0)
          1.2             (0.000684965 0 0)             (0.00273306 0 0)             (0.0107173 0 0)             (0.410064 0 0)             (0.450724 0 0)
          1.3             (0.000571663 0 0)             (0.0039288 0 0)             (0.0130436 0 0)             (0.0113581 0 0)             (0.449589 0 0)
          1.4             (0.000252985 0 0)             (0.00912401 0 0)             (0.0176214 0 0)             (0.0243919 0 0)             (0.448639 0 0)
          1.5             (0.000235606 0 0)             (0.0110831 0 0)             (0.0281213 0 0)             (0.0524179 0 0)             (0.468121 0 0)
          1.6             (0.000572963 0 0)             (0.0151856 0 0)             (0.0520557 0 0)             (0.157496 0 0)             (0.45399 0 0)
          1.7             (0.000878548 0 0)             (0.0239837 0 0)             (0.0777207 0 0)             (0.450427 0 0)             (0.451904 0 0)
          1.8             (0.00192653 0 0)             (0.042949 0 0)             (0.440106 0 0)             (0.450229 0 0)             (0.4689 0 0)
          1.9             (0.00936051 0 0)             (0.0711886 0 0)             (0.446708 0 0)             (0.450232 0 0)             (0.451863 0 0)
            2             (0.015002 0 0)             (0.434452 0 0)             (0.436757 0 0)             (0.449227 0 0)             (0.460192 0 0)
          2.1             (0.0733644 0 0)             (0.409988 0 0)             (0.422527 0 0)             (0.44832 0 0)             (0.451966 0 0)
          2.2             (0.00247823 0 0)             (0.377775 0 0)             (0.409657 0 0)             (0.448052 0 0)             (0.451955 0 0)
          2.3             (0.000898526 0 0)             (0.170444 0 0)             (0.398508 0 0)             (0.434997 0 0)             (0.451113 0 0)
          2.4             (0.00296767 0 0)             (0.009915 0 0)             (0.3684 0 0)             (0.426866 0 0)             (0.452254 0 0)
          2.5             (-5.07807e-05 0 0)             (0.00736892 0 0)             (0.0173397 0 0)             (0.407348 0 0)             (0.451966 0 0)
          2.6             (0.000270429 0 0)             (0.00573599 0 0)             (0.02191 0 0)             (0.335541 0 0)             (0.450848 0 0)
          2.7             (0.000188459 0 0)             (0.0108586 0 0)             (0.0210831 0 0)             (0.0354441 0 0)             (0.453478 0 0)
          2.8             (0.000246962 0 0)             (0.0117462 0 0)             (0.0293687 0 0)             (0.0616646 0 0)             (0.431246 0 0)
          2.9             (6.90111e-05 0 0)             (0.0137024 0 0)             (0.046304 0 0)             (0.100298 0 0)             (0.452294 0 0)
            3             (0.00079746 0 0)             (0.0248289 0 0)             (0.062393 0 0)             (0.451327 0 0)             (0.454384 0 0)
          3.1             (0.0022071 0 0)             (0.0402449 0 0)             (0.147236 0 0)             (0.449161 0 0)             (0.472191 0 0)
          3.2             (0.00465927 0 0)             (0.0584517 0 0)             (0.440582 0 0)             (0.450079 0 0)             (0.472545 0 0)
          3.3             (0.0114087 0 0)             (0.28012 0 0)             (0.43678 0 0)             (0.445123 0 0)             (0.472594 0 0)
          3.4             (0.0602395 0 0)             (0.40756 0 0)             (0.432587 0 0)             (0.443188 0 0)             (0.462079 0 0)
          3.5             (0.0479991 0 0)             (0.380715 0 0)             (0.41707 0 0)             (0.44137 0 0)             (0.453252 0 0)
          3.6             (0.00330305 0 0)             (0.272652 0 0)             (0.403258 0 0)             (0.435118 0 0)             (0.456896 0 0)
          3.7             (-0.000207646 0 0)             (0.00599718 0 0)             (0.37581 0 0)             (0.423366 0 0)             (0.465238 0 0)
          3.8             (0.00103107 0 0)             (0.00544656 0 0)             (0.221206 0 0)             (0.408842 0 0)             (0.452868 0 0)
          3.9             (0.000212882 0 0)             (0.00646093 0 0)             (0.0181617 0 0)             (0.374833 0 0)             (0.473363 0 0)
            4             (0.000261806 0 0)             (0.0112751 0 0)             (0.0231241 0 0)             (0.0341293 0 0)             (0.453027 0 0)
          4.1             (0.000914907 0 0)             (0.0137651 0 0)             (0.0347709 0 0)             (0.0617113 0 0)             (0.472523 0 0)
          4.2             (0.000859241 0 0)             (0.0163762 0 0)             (0.0491617 0 0)             (0.0946643 0 0)             (0.468149 0 0)
          4.3             (0.00241644 0 0)             (0.0284435 0 0)             (0.0686883 0 0)             (0.273491 0 0)             (0.454537 0 0)
          4.4             (0.0031535 0 0)             (0.0408955 0 0)             (0.121825 0 0)             (0.449999 0 0)             (0.454388 0 0)
          4.5             (0.00421114 0 0)             (0.0636767 0 0)             (0.437875 0 0)             (0.449024 0 0)             (0.469174 0 0)
          4.6             (0.00642749 0 0)             (0.269497 0 0)             (0.435241 0 0)             (0.444735 0 0)             (0.45408 0 0)
          4.7             (0.0200512 0 0)             (0.403661 0 0)             (0.425725 0 0)             (0.444602 0 0)             (0.453686 0 0)
          4.8             (0.00579442 0 0)             (0.374239 0 0)             (0.413206 0 0)             (0.442773 0 0)             (0.454223 0 0)
          4.9             (0.00147442 0 0)             (0.299255 0 0)             (0.399884 0 0)             (0.434189 0 0)             (0.454315 0 0)
            5             (0.000549214 0 0)             (0.0156542 0 0)             (0.369604 0 0)             (0.422598 0 0)             (0.45422 0 0)
          5.1             (0.000635801 0 0)             (0.0120169 0 0)             (0.1381 0 0)             (0.405265 0 0)             (0.472801 0 0)
          5.2             (4.60974e-05 0 0)             (0.0130735 0 0)             (0.0234397 0 0)             (0.375317 0 0)             (0.452859 0 0)
          5.3             (0.000332081 0 0)             (0.012147 0 0)             (0.0343844 0 0)             (0.158943 0 0)             (0.464935 0 0)
          5.4             (0.000273517 0 0)             (0.0162756 0 0)             (0.0417705 0 0)             (0.075797 0 0)             (0.456151 0 0)
          5.5             (0.000422996 0 0)             (0.0217918 0 0)             (0.0542538 0 0)             (0.114892 0 0)             (0.463057 0 0)
          5.6             (0.00165683 0 0)             (0.0322563 0 0)             (0.0754726 0 0)             (0.363438 0 0)             (0.455271 0 0)
          5.7             (0.00454076 0 0)             (0.0432415 0 0)             (0.142373 0 0)             (0.446689 0 0)             (0.455061 0 0)
          5.8             (0.00483051 0 0)             (0.0684231 0 0)             (0.364108 0 0)             (0.443671 0 0)             (0.455334 0 0)
          5.9             (0.00922873 0 0)             (0.31553 0 0)             (0.424252 0 0)             (0.44096 0 0)             (0.45487 0 0)
            6             (0.0339055 0 0)             (0.389432 0 0)             (0.414483 0 0)             (0.439481 0 0)             (0.470711 0 0)
          6.1             (0.00132614 0 0)             (0.355423 0 0)             (0.40366 0 0)             (0.436585 0 0)             (0.455306 0 0)
          6.2             (0.00167098 0 0)             (0.231614 0 0)             (0.3861 0 0)             (0.429759 0 0)             (0.460938 0 0)
          6.3             (0.00116896 0 0)             (0.0497168 0 0)             (0.352067 0 0)             (0.42042 0 0)             (0.454021 0 0)
          6.4             (0.000576644 0 0)             (0.018834 0 0)             (0.0702059 0 0)             (0.396909 0 0)             (0.455834 0 0)
          6.5             (0.000456676 0 0)             (0.0184143 0 0)             (0.0392214 0 0)             (0.339461 0 0)             (0.461375 0 0)
          6.6             (0.00133546 0 0)             (0.0204109 0 0)             (0.0473828 0 0)             (0.0950448 0 0)             (0.46509 0 0)
          6.7             (0.00396715 0 0)             (0.0256904 0 0)             (0.0536996 0 0)             (0.102312 0 0)             (0.463192 0 0)
          6.8             (0.00268135 0 0)             (0.031667 0 0)             (0.0690333 0 0)             (0.145979 0 0)             (0.478728 0 0)
          6.9             (0.00472349 0 0)             (0.0413563 0 0)             (0.0953065 0 0)             (0.429331 0 0)             (0.476992 0 0)
            7             (0.00534428 0 0)             (0.0551404 0 0)             (0.208294 0 0)             (0.440455 0 0)             (0.46321 0 0)
          7.1             (0.00776858 0 0)             (0.0868721 0 0)             (0.416163 0 0)             (0.439812 0 0)             (0.457612 0 0)
          7.2             (0.0116292 0 0)             (0.320158 0 0)             (0.412107 0 0)             (0.438108 0 0)             (0.45735 0 0)
          7.3             (0.0752673 0 0)             (0.35904 0 0)             (0.403262 0 0)             (0.43465 0 0)             (0.476333 0 0)
          7.4             (-0.00366276 0 0)             (0.324158 0 0)             (0.389892 0 0)             (0.42861 0 0)             (0.456882 0 0)
          7.5             (0.00162015 0 0)             (0.135115 0 0)             (0.366555 0 0)             (0.422479 0 0)             (0.456193 0 0)
          7.6             (0.00146733 0 0)             (0.0215455 0 0)             (0.311059 0 0)             (0.40999 0 0)             (0.457036 0 0)
          7.7             (0.000460383 0 0)             (0.0235498 0 0)             (0.0402677 0 0)             (0.38066 0 0)             (0.47245 0 0)
          7.8             (0.00112959 0 0)             (0.0250441 0 0)             (0.0535076 0 0)             (0.200492 0 0)             (0.456168 0 0)
          7.9             (0.00382655 0 0)             (0.0275295 0 0)             (0.059051 0 0)             (0.0962402 0 0)             (0.476711 0 0)
            8             (0.00368315 0 0)             (0.031744 0 0)             (0.0692653 0 0)             (0.131347 0 0)             (0.452154 0 0)
          8.1             (0.00431531 0 0)             (0.0385827 0 0)             (0.0884683 0 0)             (0.262447 0 0)             (0.45761 0 0)
          8.2             (0.00297379 0 0)             (0.0503784 0 0)             (0.130278 0 0)             (0.440524 0 0)             (0.47232 0 0)
          8.3             (0.00695301 0 0)             (0.0723113 0 0)             (0.363909 0 0)             (0.438828 0 0)             (0.4578 0 0)
          8.4             (0.00897883 0 0)             (0.148912 0 0)             (0.40926 0 0)             (0.435348 0 0)             (0.458207 0 0)
          8.5             (0.0248394 0 0)             (0.368353 0 0)             (0.401451 0 0)             (0.433293 0 0)             (0.457111 0 0)
          8.6             (0.0691909 0 0)             (0.335796 0 0)             (0.389388 0 0)             (0.430354 0 0)             (0.456857 0 0)
          8.7             (0.00285574 0 0)             (0.27877 0 0)             (0.373075 0 0)             (0.424899 0 0)             (0.458526 0 0)
          8.8             (0.00223826 0 0)             (0.0287191 0 0)             (0.341276 0 0)             (0.414332 0 0)             (0.457856 0 0)
          8.9             (0.00118025 0 0)             (0.0266642 0 0)             (0.149695 0 0)             (0.3961 0 0)             (0.461141 0 0)
            9             (0.00088225 0 0)             (0.0280683 0 0)             (0.0564816 0 0)             (0.350816 0 0)             (0.458086 0 0)
          9.1             (0.00340404 0 0)             (0.0305392 0 0)             (0.0644922 0 0)             (0.106088 0 0)             (0.45815 0 0)
          9.2             (0.00406446 0 0)             (0.0328001 0 0)             (0.0713699 0 0)             (0.125727 0 0)             (0.455603 0 0)
          9.3             (0.00250953 0 0)             (0.0397443 0 0)             (0.0866532 0 0)             (0.174527 0 0)             (0.461477 0 0)
          9.4             (0.00387048 0 0)             (0.048229 0 0)             (0.115647 0 0)             (0.43968 0 0)             (0.464707 0 0)
          9.5             (0.00720111 0 0)             (0.0639748 0 0)             (0.209664 0 0)             (0.435517 0 0)             (0.459206 0 0)
          9.6             (0.0079832 0 0)             (0.0996274 0 0)             (0.405973 0 0)             (0.434004 0 0)             (0.463938 0 0)
          9.7             (0.0158933 0 0)             (0.364328 0 0)             (0.397613 0 0)             (0.430677 0 0)             (0.476512 0 0)
          9.8             (0.0588176 0 0)             (0.338607 0 0)             (0.388873 0 0)             (0.430103 0 0)             (0.461527 0 0)
          9.9             (0.00217566 0 0)             (0.298676 0 0)             (0.37593 0 0)             (0.42381 0 0)             (0.458953 0 0)
           10             (0.00241407 0 0)             (0.0255083 0 0)             (0.353011 0 0)             (0.416059 0 0)             (0.459595 0 0)
         10.1             (0.00215194 0 0)             (0.0284812 0 0)             (0.280035 0 0)             (0.400636 0 0)             (0.459274 0 0)
         10.2             (0.00285086 0 0)             (0.0306818 0 0)             (0.0587963 0 0)             (0.370346 0 0)             (0.462271 0 0)
         10.3             (0.00278387 0 0)             (0.0333492 0 0)             (0.0684139 0 0)             (0.11711 0 0)             (0.480366 0 0)
         10.4             (0.00406889 0 0)             (0.0374502 0 0)             (0.0757742 0 0)             (0.126964 0 0)             (0.47695 0 0)
         10.5             (0.00367076 0 0)             (0.0414966 0 0)             (0.0890552 0 0)             (0.160968 0 0)             (0.460752 0 0)
         10.6             (0.00563282 0 0)             (0.0495889 0 0)             (0.112026 0 0)             (0.345624 0 0)             (0.460976 0 0)
         10.7             (0.00562426 0 0)             (0.06117 0 0)             (0.16564 0 0)             (0.439083 0 0)             (0.460634 0 0)
         10.8             (0.00655769 0 0)             (0.0883074 0 0)             (0.405514 0 0)             (0.433793 0 0)             (0.460831 0 0)
         10.9             (0.0120457 0 0)             (0.242853 0 0)             (0.397971 0 0)             (0.428646 0 0)             (0.460617 0 0)
           11             (0.0346169 0 0)             (0.341743 0 0)             (0.387087 0 0)             (0.425119 0 0)             (0.460097 0 0)
         11.1             (0.00272156 0 0)             (0.306341 0 0)             (0.373301 0 0)             (0.422317 0 0)             (0.472203 0 0)
         11.2             (0.00348781 0 0)             (0.192235 0 0)             (0.352862 0 0)             (0.416932 0 0)             (0.460422 0 0)
         11.3             (0.00257069 0 0)             (0.0279006 0 0)             (0.307095 0 0)             (0.404634 0 0)             (0.460523 0 0)
         11.4             (0.000978887 0 0)             (0.0323088 0 0)             (0.0615702 0 0)             (0.380257 0 0)             (0.467837 0 0)
         11.5             (0.00141482 0 0)             (0.0330344 0 0)             (0.0726565 0 0)             (0.277562 0 0)             (0.482774 0 0)
         11.6             (0.00347533 0 0)             (0.0397665 0 0)             (0.0788714 0 0)             (0.129898 0 0)             (0.472747 0 0)
         11.7             (0.00375114 0 0)             (0.0429352 0 0)             (0.0906241 0 0)             (0.161897 0 0)             (0.456886 0 0)
         11.8             (0.00395563 0 0)             (0.0498748 0 0)             (0.110677 0 0)             (0.257053 0 0)             (0.461799 0 0)
         11.9             (0.00539457 0 0)             (0.0621644 0 0)             (0.153435 0 0)             (0.437312 0 0)             (0.461692 0 0)
           12             (0.00946455 0 0)             (0.0852786 0 0)             (0.391353 0 0)             (0.433958 0 0)             (0.461935 0 0)
         12.1             (0.0108378 0 0)             (0.165378 0 0)             (0.393607 0 0)             (0.429006 0 0)             (0.461457 0 0)
         12.2             (0.0276799 0 0)             (0.335577 0 0)             (0.383906 0 0)             (0.425228 0 0)             (0.472469 0 0)
         12.3             (0.0968136 0 0)             (0.305463 0 0)             (0.372208 0 0)             (0.422747 0 0)             (0.461607 0 0)
         12.4             (0.00262517 0 0)             (0.215427 0 0)             (0.353896 0 0)             (0.416782 0 0)             (0.461688 0 0)
         12.5             (0.00311939 0 0)             (0.0317068 0 0)             (0.311368 0 0)             (0.406236 0 0)             (0.467924 0 0)
         12.6             (0.000851423 0 0)             (0.0350973 0 0)             (0.0967825 0 0)             (0.38493 0 0)             (0.462142 0 0)
         12.7             (0.00323815 0 0)             (0.0361912 0 0)             (0.078067 0 0)             (0.306415 0 0)             (0.459785 0 0)
         12.8             (0.00487564 0 0)             (0.0411984 0 0)             (0.0834841 0 0)             (0.13672 0 0)             (0.462425 0 0)
         12.9             (0.00474052 0 0)             (0.0464903 0 0)             (0.0952939 0 0)             (0.165992 0 0)             (0.467134 0 0)
           13             (0.00455531 0 0)             (0.0528936 0 0)             (0.114057 0 0)             (0.248714 0 0)             (0.464012 0 0)
         13.1             (0.00567062 0 0)             (0.0627525 0 0)             (0.155466 0 0)             (0.432704 0 0)             (0.481474 0 0)
         13.2             (0.00769527 0 0)             (0.0848257 0 0)             (0.361884 0 0)             (0.431777 0 0)             (0.464234 0 0)
         13.3             (0.010355 0 0)             (0.162902 0 0)             (0.387118 0 0)             (0.428174 0 0)             (0.46335 0 0)
         13.4             (0.0262355 0 0)             (0.32855 0 0)             (0.379346 0 0)             (0.423795 0 0)             (0.463049 0 0)
         13.5             (0.0937372 0 0)             (0.298777 0 0)             (0.367668 0 0)             (0.42108 0 0)             (0.473734 0 0)
         13.6             (0.00375025 0 0)             (0.214235 0 0)             (0.350234 0 0)             (0.414174 0 0)             (0.463577 0 0)
         13.7             (0.00305472 0 0)             (0.0354535 0 0)             (0.309058 0 0)             (0.404695 0 0)             (0.484252 0 0)
         13.8             (0.00356607 0 0)             (0.0382343 0 0)             (0.107897 0 0)             (0.382458 0 0)             (0.464258 0 0)
         13.9             (0.00435034 0 0)             (0.0424766 0 0)             (0.0842115 0 0)             (0.29974 0 0)             (0.464645 0 0)
           14             (0.00440755 0 0)             (0.0464208 0 0)             (0.091487 0 0)             (0.14488 0 0)             (0.462027 0 0)
         14.1             (0.00543692 0 0)             (0.0503307 0 0)             (0.104105 0 0)             (0.174771 0 0)             (0.460226 0 0)
         14.2             (0.00470951 0 0)             (0.0560475 0 0)             (0.121268 0 0)             (0.263084 0 0)             (0.464388 0 0)
         14.3             (0.00630434 0 0)             (0.0668405 0 0)             (0.162842 0 0)             (0.43135 0 0)             (0.480751 0 0)
         14.4             (0.00684552 0 0)             (0.0884839 0 0)             (0.368906 0 0)             (0.428546 0 0)             (0.465008 0 0)
         14.5             (0.01272 0 0)             (0.170385 0 0)             (0.380654 0 0)             (0.424019 0 0)             (0.464926 0 0)
         14.6             (0.0306117 0 0)             (0.317636 0 0)             (0.372673 0 0)             (0.421089 0 0)             (0.482663 0 0)
         14.7             (0.0687488 0 0)             (0.286935 0 0)             (0.359987 0 0)             (0.417811 0 0)             (0.464868 0 0)
         14.8             (0.00358028 0 0)             (0.190906 0 0)             (0.342253 0 0)             (0.412171 0 0)             (0.484525 0 0)
         14.9             (0.00317088 0 0)             (0.0397466 0 0)             (0.298353 0 0)             (0.401083 0 0)             (0.464219 0 0)
           15             (0.0048543 0 0)             (0.043234 0 0)             (0.100452 0 0)             (0.378491 0 0)             (0.476611 0 0)
         15.1             (0.00482989 0 0)             (0.0487879 0 0)             (0.0927449 0 0)             (0.286217 0 0)             (0.485996 0 0)
         15.2             (0.00508869 0 0)             (0.0510922 0 0)             (0.101374 0 0)             (0.161145 0 0)             (0.462586 0 0)
         15.3             (0.00494228 0 0)             (0.0541946 0 0)             (0.113419 0 0)             (0.190765 0 0)             (0.463838 0 0)
         15.4             (0.00556967 0 0)             (0.0610832 0 0)             (0.131873 0 0)             (0.302054 0 0)             (0.4819 0 0)
         15.5             (0.00685245 0 0)             (0.0708288 0 0)             (0.180602 0 0)             (0.428346 0 0)             (0.469133 0 0)
         15.6             (0.0084689 0 0)             (0.0980653 0 0)             (0.377267 0 0)             (0.424872 0 0)             (0.466042 0 0)
         15.7             (0.0137576 0 0)             (0.209872 0 0)             (0.373126 0 0)             (0.419896 0 0)             (0.470533 0 0)
         15.8             (0.0356574 0 0)             (0.302107 0 0)             (0.363715 0 0)             (0.418294 0 0)             (0.465982 0 0)
         15.9             (0.0199109 0 0)             (0.269081 0 0)             (0.351707 0 0)             (0.414938 0 0)             (0.476889 0 0)
           16             (0.00398029 0 0)             (0.139444 0 0)             (0.331627 0 0)             (0.408098 0 0)             (0.465955 0 0)
         16.1             (0.00374562 0 0)             (0.0447581 0 0)             (0.27253 0 0)             (0.396936 0 0)             (0.465736 0 0)
         16.2             (0.00519875 0 0)             (0.0490062 0 0)             (0.0992217 0 0)             (0.366967 0 0)             (0.475526 0 0)
         16.3             (0.00511167 0 0)             (0.0532343 0 0)             (0.102479 0 0)             (0.230084 0 0)             (0.46731 0 0)
         16.4             (0.00547579 0 0)             (0.0556118 0 0)             (0.112556 0 0)             (0.176149 0 0)             (0.46665 0 0)
         16.5             (0.00524362 0 0)             (0.0585722 0 0)             (0.124144 0 0)             (0.215912 0 0)             (0.466147 0 0)
         16.6             (0.00628242 0 0)             (0.0656473 0 0)             (0.145796 0 0)             (0.372384 0 0)             (0.467353 0 0)
         16.7             (0.00755769 0 0)             (0.0785338 0 0)             (0.216205 0 0)             (0.424015 0 0)             (0.483184 0 0)
         16.8             (0.00872361 0 0)             (0.11369 0 0)             (0.368982 0 0)             (0.420138 0 0)             (0.467554 0 0)
         16.9             (0.0155983 0 0)             (0.273936 0 0)             (0.364234 0 0)             (0.416882 0 0)             (0.474018 0 0)
           17             (0.0533586 0 0)             (0.28631 0 0)             (0.353736 0 0)             (0.415154 0 0)             (0.46707 0 0)
         17.1             (0.00500684 0 0)             (0.241382 0 0)             (0.342078 0 0)             (0.411252 0 0)             (0.467304 0 0)
         17.2             (0.00446692 0 0)             (0.0666997 0 0)             (0.317187 0 0)             (0.403863 0 0)             (0.483192 0 0)
         17.3             (0.00469246 0 0)             (0.0508871 0 0)             (0.223743 0 0)             (0.389054 0 0)             (0.467261 0 0)
         17.4             (0.0056559 0 0)             (0.0549898 0 0)             (0.107813 0 0)             (0.346111 0 0)             (0.467938 0 0)
         17.5             (0.00567812 0 0)             (0.0580303 0 0)             (0.112986 0 0)             (0.179994 0 0)             (0.489142 0 0)
         17.6             (0.00596602 0 0)             (0.0597779 0 0)             (0.123677 0 0)             (0.196522 0 0)             (0.465764 0 0)
         17.7             (0.00604266 0 0)             (0.0644824 0 0)             (0.135246 0 0)             (0.254082 0 0)             (0.470509 0 0)
         17.8             (0.00700336 0 0)             (0.0724119 0 0)             (0.166262 0 0)             (0.419387 0 0)             (0.484314 0 0)
         17.9             (0.00857598 0 0)             (0.0903164 0 0)             (0.286865 0 0)             (0.419862 0 0)             (0.468645 0 0)
           18             (0.0119586 0 0)             (0.14668 0 0)             (0.360454 0 0)             (0.41588 0 0)             (0.482305 0 0)
         18.1             (0.0223644 0 0)             (0.286091 0 0)             (0.354407 0 0)             (0.413912 0 0)             (0.468495 0 0)
         18.2             (0.0697274 0 0)             (0.264738 0 0)             (0.343952 0 0)             (0.411744 0 0)             (0.468999 0 0)
         18.3             (0.00593807 0 0)             (0.19147 0 0)             (0.329857 0 0)             (0.406604 0 0)             (0.477568 0 0)
         18.4             (0.00490905 0 0)             (0.056158 0 0)             (0.290994 0 0)             (0.398196 0 0)             (0.489653 0 0)
         18.5             (0.00608034 0 0)             (0.0567211 0 0)             (0.137816 0 0)             (0.376401 0 0)             (0.48479 0 0)
         18.6             (0.00621511 0 0)             (0.0607998 0 0)             (0.117561 0 0)             (0.296366 0 0)             (0.488706 0 0)
         18.7             (0.00620596 0 0)             (0.0622849 0 0)             (0.124901 0 0)             (0.195632 0 0)             (0.466703 0 0)
         18.8             (0.00645366 0 0)             (0.0647655 0 0)             (0.134671 0 0)             (0.223842 0 0)             (0.47027 0 0)
         18.9             (0.00682492 0 0)             (0.0710327 0 0)             (0.152178 0 0)             (0.327234 0 0)             (0.469708 0 0)
           19             (0.00782787 0 0)             (0.0810128 0 0)             (0.204345 0 0)             (0.416512 0 0)             (0.484816 0 0)
         19.1             (0.00913941 0 0)             (0.109448 0 0)             (0.350865 0 0)             (0.415421 0 0)             (0.469832 0 0)
         19.2             (0.0147978 0 0)             (0.222212 0 0)             (0.352013 0 0)             (0.412152 0 0)             (0.470726 0 0)
         19.3             (0.0407487 0 0)             (0.269827 0 0)             (0.343835 0 0)             (0.411016 0 0)             (0.473851 0 0)
         19.4             (0.00939477 0 0)             (0.232851 0 0)             (0.333997 0 0)             (0.407728 0 0)             (0.488859 0 0)
         19.5             (0.00573242 0 0)             (0.0975739 0 0)             (0.311383 0 0)             (0.40126 0 0)             (0.470308 0 0)